 +-------------------------------------------------+
 |                                                 |
 |      CCC   AA    SSS  TTTTT  EEEEE  PPPP        |
 |     C     A  A  S       T    E      P   P       |
 |     C     AAAA   SS     T    EEE    PPPP        |
 |     C     A  A     S    T    E      P           |
 |      CCC  A  A  SSS     T    EEEEE  P           |
 |                                                 |
 +-------------------------------------------------+
 |                                                 |
 | Welcome to Academic Release CASTEP version 6.1  |
 | Ab Initio Total Energy Program                  |
 |                                                 |
 | Authors:                                        |
 | M. Segall, M. Probert, C. Pickard, P. Hasnip,   |
 | S. Clark, K. Refson, J. R. Yates, M. Payne      |
 |                                                 |
 | Contributors:                                   |
 | P. Lindan, P. Haynes, J. White, V. Milman,      |
 | N. Govind, M. Gibson, P. Tulip, V. Cocula,      |
 | B. Montanari, D. Quigley, M. Glover,            |
 | L. Bernasconi, A. Perlov, M. Plummer,           |
 | E. McNellis, J. Meyer, J. Gale, D. Jochym       |
 | J. Aarons, B. Walker, R. Gillen                 |
 |                                                 |
 | Copyright (c) 2000 - 2012                       |
 |                                                 |
 |     Distributed under the terms of an           |
 |     Agreement between the United Kingdom        |
 |     Car-Parrinello (UKCP) Consortium,           |
 |     Daresbury Laboratory and Accelrys, Inc.     |
 |                                                 |
 | Please cite                                     |
 |                                                 |
 |     "First principles methods using CASTEP"     |
 |                                                 |
 |         Zeitschrift fuer Kristallographie       |
 |           220(5-6) pp. 567-570 (2005)           |
 |                                                 |
 | S. J. Clark, M. D. Segall, C. J. Pickard,       |
 | P. J. Hasnip, M. J. Probert, K. Refson,         |
 | M. C. Payne                                     |
 |                                                 |
 |       in all publications arising from          |
 |              your use of CASTEP                 |
 |                                                 |
 +-------------------------------------------------+
 
 
 Compiled for linux_x86_64_ifort12 on Tue Oct  2 13:39:45 2012
 from source code version 66eceff98deb+  2012-10-01
 using fast optimisation, mkl FFTs and mkl10 LAPACK and BLAS.
 
 Info: number of up-spin electrons is not equal to the
       number of down-spins but spin_polarized=false
     - consider setting spin_polarized=true.
 
 Pseudo atomic calculation performed for P 3s2 3p3
 
 Converged in 12 iterations to a total energy of -174.1228 eV
 
 Calculation parallelised over 2 processes.
 Data is distributed by k-point(2-way)

 ************************************ Title ************************************
 

 ***************************** General Parameters ******************************
  
 output verbosity                               : normal  (1)
 write checkpoint data to                       : /dev/shm/check
 type of calculation                            : geometry optimization
 stress calculation                             : off
 density difference calculation                 : off
 electron localisation func (ELF) calculation   : off
 Hirshfeld analysis                             : off
 unlimited duration calculation
 timing information                             : on
 memory usage estimate                          : on
 write final potential to formatted file        : off
 write final density to formatted file          : off
 write structure in CELL formatted file         : on
 write BibTeX reference list                    : off
  
 output         length unit                     : A
 output           mass unit                     : amu
 output           time unit                     : ps
 output         charge unit                     : e
 output         energy unit                     : eV
 output          force unit                     : eV/A
 output       velocity unit                     : A/ps
 output       pressure unit                     : GPa
 output     inv_length unit                     : 1/A
 output      frequency unit                     : cm-1
 output force constant unit                     : eV/A**2
 output         volume unit                     : A**3
 output   IR intensity unit                     : (D/A)**2/amu
 output         dipole unit                     : D
 output         efield unit                     : eV/A/e
 output        entropy unit                     : J/mol/K
  
 wavefunctions paging                           : none
 data distribution                              : optimal for this architecture
 optimization strategy                          : maximize speed(+++)

 *********************** Exchange-Correlation Parameters ***********************
  
 using functional                               : Perdew Burke Ernzerhof
 Divergence correction                          : off
 DFT+D: Semi-empirical dispersion correction    : off

 ************************* Pseudopotential Parameters **************************
  
 pseudopotential representation                 : reciprocal space
 <beta|phi> representation                      : reciprocal space

 **************************** Basis Set Parameters *****************************
  
 plane wave basis set cut-off                   :   160.0000   eV
 finite basis set correction                    : none

 **************************** Electronic Parameters ****************************
  
 number of  electrons                           :  5.000    
 net charge of system                           :  0.000    
 net spin   of system                           :  1.000    
 number of  up  spins                           :  3.000    
 number of down spins                           :  2.000    
 treating system as non-spin-polarized
 number of bands                                :         11

 ********************* Electronic Minimization Parameters **********************
  
 Method: Treating system as metallic with density mixing treatment of electrons,
         and number of  SD  steps               :          1
         and number of  CG  steps               :          4
  
 total energy / atom convergence tol.           : 0.1000E-04   eV
 eigen-energy convergence tolerance             : 0.9091E-06   eV
 max force / atom convergence tol.              : ignored
 convergence tolerance window                   :          3   cycles
 max. number of SCF cycles                      :      10000
 number of fixed-spin iterations                :         10
 smearing scheme                                : Gaussian
 smearing width                                 : 0.2000       eV
 Fermi energy convergence tolerance             : 0.9091E-07   eV
 periodic dipole correction                     : NONE

 ************************** Density Mixing Parameters **************************
  
 density-mixing scheme                          : Broyden
 max. length of mixing history                  :         20
 charge density mixing amplitude                : 0.8000    
 cut-off energy for mixing                      :  160.0       eV

 *********************** Population Analysis Parameters ************************
  
 Population analysis with cutoff                :  3.000       A

 ********************** Geometry Optimization Parameters ***********************
  
 optimization method                            : LBFGS
 max. no. of LBFGS updates                      : unbounded
 variable cell method                           : fixed basis size
 max. number of steps                           :       1000
 estimated bulk modulus                         :  500.0       GPa
 estimated <frequency>                          :  1668.       cm-1
 geom line minimiser                            : on
 with line minimiser tolerance                  :     0.4000
 total energy convergence tolerance             : 0.2000E-04   eV/atom
        max ionic |force| tolerance             : 0.5000E-01   eV/A
 max ionic |displacement| tolerance             : 0.1000E-02   A
   max |stress component| tolerance             : 0.1000       GPa
 convergence tolerance window                   :          2   steps
 backup results every                           : 2147483647   steps

 *******************************************************************************
  
 
                           -------------------------------
                                      Unit Cell
                           -------------------------------
        Real Lattice(A)                      Reciprocal Lattice(1/A)
   1.6885000  -2.9245678   0.0000000        1.8605820  -1.0742075   0.0000000
   1.6885000   2.9245678   0.0000000        1.8605820   1.0742075   0.0000000
   0.0000000   0.0000000   8.8060000        0.0000000   0.0000000   0.7135118
 
                       Lattice parameters(A)       Cell Angles
                    a =    3.377000          alpha =   90.000000
                    b =    3.377000          beta  =   90.000000
                    c =    8.806000          gamma =  120.000000
 
                       Current cell volume =   86.970393       A**3
 
                           -------------------------------
                                     Cell Contents
                           -------------------------------
                         Total number of ions in cell =    1
                      Total number of species in cell =    1
                        Max number of any one species =    1
 
            xxxxxxxxxxxxxxxxxxxxxxxxxxxxxxxxxxxxxxxxxxxxxxxxxxxxxxxxxxxx
            x  Element    Atom        Fractional coordinates of atoms  x
            x            Number           u          v          w      x
            x----------------------------------------------------------x
            x  P            1         0.000000   0.000000   0.214967   x
            xxxxxxxxxxxxxxxxxxxxxxxxxxxxxxxxxxxxxxxxxxxxxxxxxxxxxxxxxxxx
 
 
                         No user defined ionic velocities
 
                           -------------------------------
                                   Details of Species
                           -------------------------------
 
                               Mass of species in AMU
                                    P   30.9737600
 
                          Electric Quadrupole Moment (Barn)
                                    P    1.0000000 No Isotope Defined
 
                          Files used for pseudopotentials:
                                    P ~/pspot/P_00PBE.usp
 
                           -------------------------------
                              k-Points For BZ Sampling
                           -------------------------------
                       MP grid size for SCF calculation is  7  7  3
                         Number of kpoints used =          74
 
             +++++++++++++++++++++++++++++++++++++++++++++++++++++++
             +  Number       Fractional coordinates        Weight  +
             +-----------------------------------------------------+
             +     1  -0.428571  -0.428571  -0.333333   0.0136054  +
             +     2  -0.428571  -0.428571   0.000000   0.0136054  +
             +     3  -0.428571  -0.285714  -0.333333   0.0136054  +
             +     4  -0.428571  -0.142857   0.000000   0.0136054  +
             +     5  -0.428571   0.000000   0.333333   0.0136054  +
             +     6  -0.428571   0.285714  -0.333333   0.0136054  +
             +     7  -0.428571   0.285714   0.333333   0.0136054  +
             +     8  -0.285714  -0.428571  -0.333333   0.0136054  +
             +     9  -0.285714  -0.428571   0.333333   0.0136054  +
             +    10  -0.285714  -0.285714  -0.333333   0.0136054  +
             +    11  -0.285714  -0.285714   0.000000   0.0136054  +
             +    12  -0.285714  -0.285714   0.333333   0.0136054  +
             +    13  -0.285714  -0.142857  -0.333333   0.0136054  +
             +    14  -0.285714   0.000000   0.000000   0.0136054  +
             +    15  -0.285714   0.000000   0.333333   0.0136054  +
             +    16  -0.285714   0.142857  -0.333333   0.0136054  +
             +    17  -0.285714   0.142857   0.000000   0.0136054  +
             +    18  -0.285714   0.142857   0.333333   0.0136054  +
             +    19  -0.285714   0.285714  -0.333333   0.0136054  +
             +    20  -0.285714   0.285714   0.000000   0.0136054  +
             +    21  -0.285714   0.285714   0.333333   0.0136054  +
             +    22  -0.285714   0.428571  -0.333333   0.0136054  +
             +    23  -0.285714   0.428571   0.000000   0.0136054  +
             +    24  -0.285714   0.428571   0.333333   0.0136054  +
             +    25  -0.142857  -0.428571  -0.333333   0.0136054  +
             +    26  -0.142857  -0.428571   0.000000   0.0136054  +
             +    27  -0.142857  -0.285714  -0.333333   0.0136054  +
             +    28  -0.142857  -0.285714   0.000000   0.0136054  +
             +    29  -0.142857  -0.285714   0.333333   0.0136054  +
             +    30  -0.142857  -0.142857  -0.333333   0.0136054  +
             +    31   0.000000  -0.428571   0.000000   0.0136054  +
             +    32   0.000000  -0.428571   0.333333   0.0136054  +
             +    33   0.000000  -0.285714  -0.333333   0.0136054  +
             +    34   0.000000  -0.285714   0.000000   0.0136054  +
             +    35   0.000000  -0.285714   0.333333   0.0136054  +
             +    36   0.000000  -0.142857  -0.333333   0.0136054  +
             +    37   0.000000  -0.142857   0.000000   0.0136054  +
             +    38   0.000000  -0.142857   0.333333   0.0136054  +
             +    39   0.000000   0.000000  -0.333333   0.0136054  +
             +    40   0.000000   0.000000   0.000000   0.0068027  +
             +    41   0.000000   0.428571   0.333333   0.0136054  +
             +    42   0.142857  -0.428571  -0.333333   0.0136054  +
             +    43   0.142857  -0.428571   0.000000   0.0136054  +
             +    44   0.142857  -0.428571   0.333333   0.0136054  +
             +    45   0.142857  -0.285714  -0.333333   0.0136054  +
             +    46   0.142857  -0.285714   0.000000   0.0136054  +
             +    47   0.142857  -0.285714   0.333333   0.0136054  +
             +    48   0.142857  -0.142857  -0.333333   0.0136054  +
             +    49   0.142857  -0.142857   0.000000   0.0136054  +
             +    50   0.142857  -0.142857   0.333333   0.0136054  +
             +    51   0.142857   0.000000  -0.333333   0.0136054  +
             +    52   0.142857   0.000000   0.000000   0.0136054  +
             +    53   0.142857   0.000000   0.333333   0.0136054  +
             +    54   0.142857   0.142857  -0.333333   0.0136054  +
             +    55   0.142857   0.142857   0.000000   0.0136054  +
             +    56   0.142857   0.428571  -0.333333   0.0136054  +
             +    57   0.285714   0.000000   0.333333   0.0136054  +
             +    58   0.285714   0.142857  -0.333333   0.0136054  +
             +    59   0.285714   0.142857   0.000000   0.0136054  +
             +    60   0.285714   0.428571   0.000000   0.0136054  +
             +    61   0.428571  -0.428571  -0.333333   0.0136054  +
             +    62   0.428571  -0.428571   0.000000   0.0136054  +
             +    63   0.428571  -0.428571   0.333333   0.0136054  +
             +    64   0.428571  -0.285714   0.000000   0.0136054  +
             +    65   0.428571  -0.142857  -0.333333   0.0136054  +
             +    66   0.428571  -0.142857   0.000000   0.0136054  +
             +    67   0.428571  -0.142857   0.333333   0.0136054  +
             +    68   0.428571   0.000000   0.000000   0.0136054  +
             +    69   0.428571   0.000000   0.333333   0.0136054  +
             +    70   0.428571   0.142857  -0.333333   0.0136054  +
             +    71   0.428571   0.142857   0.333333   0.0136054  +
             +    72   0.428571   0.285714  -0.333333   0.0136054  +
             +    73   0.428571   0.285714   0.000000   0.0136054  +
             +    74   0.428571   0.428571  -0.333333   0.0136054  +
             +++++++++++++++++++++++++++++++++++++++++++++++++++++++
 
                           -------------------------------
                               Symmetry and Constraints
                           -------------------------------
 
         There are no symmetry operations specified or generated for this cell
                      Number of ionic constraints     =           3
                      Maximum deviation from symmetry =  0.00000         ANG
               Point group of crystal =     1: C1, 1, 1
 
                          Centre of mass is constrained
             Set iprint > 1 for details of linear ionic constraints
 
                         Number of cell constraints= 0
                         Cell constraints are:  1 2 3 4 5 6
 
                         External pressure/stress (GPa)
                          0.00000   0.00000   0.00000
                                    0.00000   0.00000
                                              0.00000
  
+---------------- MEMORY AND SCRATCH DISK ESTIMATES PER NODE -----------------+
|                                                     Memory          Disk    |
| Model and support data                               22.5 MB         0.0 MB |
| Electronic energy minimisation requirements           6.0 MB         0.0 MB |
|                                               ----------------------------- |
| Approx. total storage required per node              28.5 MB         0.0 MB |
|                                                                             |
| Requirements will fluctuate during execution and may exceed these estimates |
+-----------------------------------------------------------------------------+
------------------------------------------------------------------------ <-- SCF
SCF loop      Energy           Fermi           Energy gain       Timer   <-- SCF
                               energy          per atom          (sec)   <-- SCF
------------------------------------------------------------------------ <-- SCF
Initial  -6.51257359E+000  0.00000000E+000                         0.24  <-- SCF
      1  -1.64564053E+002  8.53869306E-001   1.58051479E+002       1.15  <-- SCF
      2  -1.76412171E+002 -2.55445184E+000   1.18481183E+001       1.81  <-- SCF
      3  -1.76772340E+002 -2.67261957E+000   3.60168976E-001       2.48  <-- SCF
      4  -1.76765563E+002 -2.84778043E+000  -6.77730230E-003       3.24  <-- SCF
      5  -1.76766226E+002 -2.90480034E+000   6.63629007E-004       4.00  <-- SCF
      6  -1.76766383E+002 -2.91448810E+000   1.56377156E-004       4.79  <-- SCF
      7  -1.76766489E+002 -2.92122664E+000   1.06145626E-004       5.44  <-- SCF
      8  -1.76766546E+002 -2.92632160E+000   5.69315848E-005       6.10  <-- SCF
      9  -1.76766740E+002 -2.93514775E+000   1.94528820E-004       6.77  <-- SCF
     10  -1.76766767E+002 -2.93714252E+000   2.69592174E-005       7.46  <-- SCF
     11  -1.76766769E+002 -2.93734557E+000   2.04007600E-006       8.10  <-- SCF
     12  -1.76766770E+002 -2.93752231E+000   3.72090157E-007       8.72  <-- SCF
------------------------------------------------------------------------ <-- SCF
 
Final energy, E             =  -176.7168794889     eV
Final free energy (E-TS)    =  -176.7667698367     eV
(energies not corrected for finite basis set)
 
NB est. 0K energy (E-0.5TS)      =  -176.7418246628     eV
 
 
Writing model to /dev/shm/check

WARNING - doing cell minimisation without finite basis correction:
        => now searching for a stationary and not minimum energy
 
+---------------- MEMORY AND SCRATCH DISK ESTIMATES PER NODE -----------------+
|                                                     Memory          Disk    |
| Model and support data                               25.7 MB         0.0 MB |
| Electronic energy minimisation requirements           6.0 MB         0.0 MB |
| Geometry minimisation requirements                    8.8 MB         0.0 MB |
|                                               ----------------------------- |
| Approx. total storage required per node              40.6 MB         0.0 MB |
|                                                                             |
| Requirements will fluctuate during execution and may exceed these estimates |
+-----------------------------------------------------------------------------+
 
 
 ***************** Stress Tensor *****************
 *                                               *
 *          Cartesian components (GPa)           *
 * --------------------------------------------- *
 *             x             y             z     *
 *                                               *
 *  x      7.533658      0.000000      0.000000  *
 *  y      0.000000      7.534058      0.000000  *
 *  z      0.000000      0.000000      0.400096  *
 *                                               *
 *  Pressure:   -5.1559                          *
 *                                               *
 *************************************************
 BFGS: finished iteration     0 with enthalpy= -1.76766770E+002 eV
  
 +-----------+-----------------+-----------------+------------+-----+ <-- BFGS
 | Parameter |      value      |    tolerance    |    units   | OK? | <-- BFGS
 +-----------+-----------------+-----------------+------------+-----+ <-- BFGS
 |  dE/ion   |   0.000000E+000 |   2.000000E-005 |         eV | No  | <-- BFGS
 |   Smax    |   7.534058E+000 |   1.000000E-001 |        GPa | No  | <-- BFGS
 +-----------+-----------------+-----------------+------------+-----+ <-- BFGS
  

================================================================================
 Starting BFGS iteration          1 ...
================================================================================
  
 +------------+-------------+-------------+-----------------+ <-- min BFGS
 |    Step    |   lambda    |   F.delta   |    enthalpy     | <-- min BFGS
 +------------+-------------+-------------+-----------------+ <-- min BFGS
 |  previous  |    0.000000 |    0.001512 |     -176.766770 | <-- min BFGS
 +------------+-------------+-------------+-----------------+ <-- min BFGS
  

--------------------------------------------------------------------------------
 BFGS: starting iteration         1 with trial guess (lambda=  1.000000)
--------------------------------------------------------------------------------
 
                           -------------------------------
                                      Unit Cell
                           -------------------------------
        Real Lattice(A)              Reciprocal Lattice(1/A)
   1.6800196  -2.9098785   0.0000000        1.8699738  -1.0796302   0.0000000
   1.6800196   2.9098785   0.0000000        1.8699738   1.0796302   0.0000000
   0.0000000   0.0000000   8.8036512        0.0000000   0.0000000   0.7137022
 
                       Lattice parameters(A)       Cell Angles
                    a =    3.360039          alpha =   90.000000
                    b =    3.360039          beta  =   90.000000
                    c =    8.803651          gamma =  119.999987
 
                Current cell volume =   86.075992 A**3
 
------------------------------------------------------------------------ <-- SCF
SCF loop      Energy           Fermi           Energy gain       Timer   <-- SCF
                               energy          per atom          (sec)   <-- SCF
------------------------------------------------------------------------ <-- SCF
Initial  -1.76754937E+002  0.00000000E+000                         9.03  <-- SCF
      1  -1.76808895E+002 -2.86427959E+000   5.39580003E-002       9.73  <-- SCF
      2  -1.76808919E+002 -2.86428168E+000   2.39828312E-005      10.49  <-- SCF
      3  -1.76807981E+002 -2.89717542E+000  -9.37771270E-004      11.23  <-- SCF
      4  -1.76808014E+002 -2.90403163E+000   3.31097129E-005      11.92  <-- SCF
      5  -1.76808015E+002 -2.90438117E+000   1.25378789E-006      12.52  <-- SCF
      6  -1.76808015E+002 -2.90441740E+000  -8.27807173E-009      13.09  <-- SCF
------------------------------------------------------------------------ <-- SCF
 
Final energy, E             =  -176.7583236702     eV
Final free energy (E-TS)    =  -176.8080151441     eV
(energies not corrected for finite basis set)
 
NB est. 0K energy (E-0.5TS)      =  -176.7831694072     eV
 
 
 ***************** Stress Tensor *****************
 *                                               *
 *          Cartesian components (GPa)           *
 * --------------------------------------------- *
 *             x             y             z     *
 *                                               *
 *  x      7.613438      0.000000      0.000000  *
 *  y      0.000000      7.613954      0.000000  *
 *  z      0.000000      0.000000      0.399414  *
 *                                               *
 *  Pressure:   -5.2089                          *
 *                                               *
 *************************************************
  
 +------------+-------------+-------------+-----------------+ <-- min BFGS
 |    Step    |   lambda    |   F.delta   |    enthalpy     | <-- min BFGS
 +------------+-------------+-------------+-----------------+ <-- min BFGS
 |  previous  |    0.000000 |    0.001512 |     -176.766770 | <-- min BFGS
 | trial step |    1.000000 |    0.001520 |     -176.808015 | <-- min BFGS
 +------------+-------------+-------------+-----------------+ <-- min BFGS
  
 BFGS: finished iteration     1 with enthalpy= -1.76808015E+002 eV
  
 +-----------+-----------------+-----------------+------------+-----+ <-- BFGS
 | Parameter |      value      |    tolerance    |    units   | OK? | <-- BFGS
 +-----------+-----------------+-----------------+------------+-----+ <-- BFGS
 |  dE/ion   |   4.124531E-002 |   2.000000E-005 |         eV | No  | <-- BFGS
 |   Smax    |   7.613954E+000 |   1.000000E-001 |        GPa | No  | <-- BFGS
 +-----------+-----------------+-----------------+------------+-----+ <-- BFGS
  

================================================================================
 Starting BFGS iteration          2 ...
================================================================================
  
 +------------+-------------+-------------+-----------------+ <-- min BFGS
 |    Step    |   lambda    |   F.delta   |    enthalpy     | <-- min BFGS
 +------------+-------------+-------------+-----------------+ <-- min BFGS
 |  previous  |    0.000000 |    0.001544 |     -176.808015 | <-- min BFGS
 +------------+-------------+-------------+-----------------+ <-- min BFGS
  

--------------------------------------------------------------------------------
 BFGS: starting iteration         2 with trial guess (lambda=  1.000000)
--------------------------------------------------------------------------------
 
+---------------- MEMORY AND SCRATCH DISK ESTIMATES PER NODE -----------------+
|                                                     Memory          Disk    |
| Model and support data                               25.8 MB         0.0 MB |
| Electronic energy minimisation requirements           6.0 MB         0.0 MB |
| Geometry minimisation requirements                    8.8 MB         0.0 MB |
|                                               ----------------------------- |
| Approx. total storage required per node              40.7 MB         0.0 MB |
|                                                                             |
| Requirements will fluctuate during execution and may exceed these estimates |
+-----------------------------------------------------------------------------+
 
 
                           -------------------------------
                                      Unit Cell
                           -------------------------------
        Real Lattice(A)              Reciprocal Lattice(1/A)
   1.6714062  -2.8949586   0.0000000        1.8796106  -1.0851943   0.0000000
   1.6714062   2.8949586   0.0000000        1.8796106   1.0851943   0.0000000
   0.0000000   0.0000000   8.8013057        0.0000000   0.0000000   0.7138924
 
                       Lattice parameters(A)       Cell Angles
                    a =    3.342811          alpha =   90.000000
                    b =    3.342811          beta  =   90.000000
                    c =    8.801306          gamma =  119.999969
 
                Current cell volume =   85.172904 A**3
 
------------------------------------------------------------------------ <-- SCF
SCF loop      Energy           Fermi           Energy gain       Timer   <-- SCF
                               energy          per atom          (sec)   <-- SCF
------------------------------------------------------------------------ <-- SCF
Initial  -1.76797114E+002  0.00000000E+000                        13.39  <-- SCF
      1  -1.76851024E+002 -2.82953947E+000   5.39096216E-002      14.10  <-- SCF
      2  -1.76851050E+002 -2.82954165E+000   2.55218514E-005      14.87  <-- SCF
      3  -1.76850112E+002 -2.86268893E+000  -9.37603914E-004      15.61  <-- SCF
      4  -1.76850128E+002 -2.86969538E+000   1.57479804E-005      16.30  <-- SCF
      5  -1.76850129E+002 -2.87005994E+000   1.71481249E-006      16.87  <-- SCF
      6  -1.76850129E+002 -2.87012548E+000   3.07808180E-008      17.44  <-- SCF
------------------------------------------------------------------------ <-- SCF
 
Final energy, E             =  -176.8006765306     eV
Final free energy (E-TS)    =  -176.8501294905     eV
(energies not corrected for finite basis set)
 
NB est. 0K energy (E-0.5TS)      =  -176.8254030105     eV
 
 
 ***************** Stress Tensor *****************
 *                                               *
 *          Cartesian components (GPa)           *
 * --------------------------------------------- *
 *             x             y             z     *
 *                                               *
 *  x      7.695522      0.000000      0.000000  *
 *  y      0.000000      7.696146      0.000000  *
 *  z      0.000000      0.000000      0.399377  *
 *                                               *
 *  Pressure:   -5.2637                          *
 *                                               *
 *************************************************
  
 +------------+-------------+-------------+-----------------+ <-- min BFGS
 |    Step    |   lambda    |   F.delta   |    enthalpy     | <-- min BFGS
 +------------+-------------+-------------+-----------------+ <-- min BFGS
 |  previous  |    0.000000 |    0.001544 |     -176.808015 | <-- min BFGS
 | trial step |    1.000000 |    0.001552 |     -176.850129 | <-- min BFGS
 +------------+-------------+-------------+-----------------+ <-- min BFGS
  
 BFGS: finished iteration     2 with enthalpy= -1.76850129E+002 eV
  
 +-----------+-----------------+-----------------+------------+-----+ <-- BFGS
 | Parameter |      value      |    tolerance    |    units   | OK? | <-- BFGS
 +-----------+-----------------+-----------------+------------+-----+ <-- BFGS
 |  dE/ion   |   4.211435E-002 |   2.000000E-005 |         eV | No  | <-- BFGS
 |   Smax    |   7.696146E+000 |   1.000000E-001 |        GPa | No  | <-- BFGS
 +-----------+-----------------+-----------------+------------+-----+ <-- BFGS
  

================================================================================
 Starting BFGS iteration          3 ...
================================================================================
  
 +------------+-------------+-------------+-----------------+ <-- min BFGS
 |    Step    |   lambda    |   F.delta   |    enthalpy     | <-- min BFGS
 +------------+-------------+-------------+-----------------+ <-- min BFGS
 |  previous  |    0.000000 |    0.001577 |     -176.850129 | <-- min BFGS
 +------------+-------------+-------------+-----------------+ <-- min BFGS
  

--------------------------------------------------------------------------------
 BFGS: starting iteration         3 with trial guess (lambda=  1.000000)
--------------------------------------------------------------------------------
 
                           -------------------------------
                                      Unit Cell
                           -------------------------------
        Real Lattice(A)              Reciprocal Lattice(1/A)
   1.6626550  -2.8797999   0.0000000        1.8895037  -1.0909066   0.0000000
   1.6626550   2.8797999   0.0000000        1.8895037   1.0909066   0.0000000
   0.0000000   0.0000000   8.7989599        0.0000000   0.0000000   0.7140827
 
                       Lattice parameters(A)       Cell Angles
                    a =    3.325307          alpha =   90.000000
                    b =    3.325307          beta  =   90.000000
                    c =    8.798960          gamma =  119.999948
 
                Current cell volume =   84.260838 A**3
 
------------------------------------------------------------------------ <-- SCF
SCF loop      Energy           Fermi           Energy gain       Timer   <-- SCF
                               energy          per atom          (sec)   <-- SCF
------------------------------------------------------------------------ <-- SCF
Initial  -1.76840220E+002  0.00000000E+000                        17.74  <-- SCF
      1  -1.76894062E+002 -2.79386767E+000   5.38417904E-002      18.44  <-- SCF
      2  -1.76894088E+002 -2.79386990E+000   2.65159770E-005      19.23  <-- SCF
      3  -1.76893127E+002 -2.82724792E+000  -9.61722078E-004      19.96  <-- SCF
      4  -1.76893143E+002 -2.83440807E+000   1.61141620E-005      20.64  <-- SCF
      5  -1.76893144E+002 -2.83477610E+000   1.41266705E-006      21.21  <-- SCF
      6  -1.76893144E+002 -2.83486319E+000  -1.29731078E-007      21.77  <-- SCF
------------------------------------------------------------------------ <-- SCF
 
Final energy, E             =  -176.8439842618     eV
Final free energy (E-TS)    =  -176.8931440342     eV
(energies not corrected for finite basis set)
 
NB est. 0K energy (E-0.5TS)      =  -176.8685641480     eV
 
 
 ***************** Stress Tensor *****************
 *                                               *
 *          Cartesian components (GPa)           *
 * --------------------------------------------- *
 *             x             y             z     *
 *                                               *
 *  x      7.779718      0.000000      0.000000  *
 *  y      0.000000      7.780452      0.000000  *
 *  z      0.000000      0.000000      0.399566  *
 *                                               *
 *  Pressure:   -5.3199                          *
 *                                               *
 *************************************************
  
 +------------+-------------+-------------+-----------------+ <-- min BFGS
 |    Step    |   lambda    |   F.delta   |    enthalpy     | <-- min BFGS
 +------------+-------------+-------------+-----------------+ <-- min BFGS
 |  previous  |    0.000000 |    0.001577 |     -176.850129 | <-- min BFGS
 | trial step |    1.000000 |    0.001585 |     -176.893144 | <-- min BFGS
 +------------+-------------+-------------+-----------------+ <-- min BFGS
  
 BFGS: finished iteration     3 with enthalpy= -1.76893144E+002 eV
  
 +-----------+-----------------+-----------------+------------+-----+ <-- BFGS
 | Parameter |      value      |    tolerance    |    units   | OK? | <-- BFGS
 +-----------+-----------------+-----------------+------------+-----+ <-- BFGS
 |  dE/ion   |   4.301454E-002 |   2.000000E-005 |         eV | No  | <-- BFGS
 |   Smax    |   7.780452E+000 |   1.000000E-001 |        GPa | No  | <-- BFGS
 +-----------+-----------------+-----------------+------------+-----+ <-- BFGS
  

================================================================================
 Starting BFGS iteration          4 ...
================================================================================
  
 +------------+-------------+-------------+-----------------+ <-- min BFGS
 |    Step    |   lambda    |   F.delta   |    enthalpy     | <-- min BFGS
 +------------+-------------+-------------+-----------------+ <-- min BFGS
 |  previous  |    0.000000 |    0.001611 |     -176.893144 | <-- min BFGS
 +------------+-------------+-------------+-----------------+ <-- min BFGS
  

--------------------------------------------------------------------------------
 BFGS: starting iteration         4 with trial guess (lambda=  1.000000)
--------------------------------------------------------------------------------
 
                           -------------------------------
                                      Unit Cell
                           -------------------------------
        Real Lattice(A)              Reciprocal Lattice(1/A)
   1.6537615  -2.8643944   0.0000000        1.8996649  -1.0967738   0.0000000
   1.6537615   2.8643944   0.0000000        1.8996649   1.0967738   0.0000000
   0.0000000   0.0000000   8.7966123        0.0000000   0.0000000   0.7142733
 
                       Lattice parameters(A)       Cell Angles
                    a =    3.307519          alpha =   90.000000
                    b =    3.307519          beta  =   90.000000
                    c =    8.796612          gamma =  119.999922
 
                Current cell volume =   83.339546 A**3
 
------------------------------------------------------------------------ <-- SCF
SCF loop      Energy           Fermi           Energy gain       Timer   <-- SCF
                               energy          per atom          (sec)   <-- SCF
------------------------------------------------------------------------ <-- SCF
Initial  -1.76884305E+002  0.00000000E+000                        22.06  <-- SCF
      1  -1.76938036E+002 -2.75714007E+000   5.37310140E-002      22.74  <-- SCF
      2  -1.76938063E+002 -2.75714240E+000   2.75146033E-005      23.50  <-- SCF
      3  -1.76937076E+002 -2.79075914E+000  -9.87085438E-004      24.22  <-- SCF
      4  -1.76937093E+002 -2.79808588E+000   1.64754229E-005      24.89  <-- SCF
      5  -1.76937095E+002 -2.79845076E+000   1.75080412E-006      25.45  <-- SCF
      6  -1.76937094E+002 -2.79855695E+000  -5.59266143E-008      26.01  <-- SCF
------------------------------------------------------------------------ <-- SCF
 
Final energy, E             =  -176.8883009990     eV
Final free energy (E-TS)    =  -176.9370944592     eV
(energies not corrected for finite basis set)
 
NB est. 0K energy (E-0.5TS)      =  -176.9126977291     eV
 
 
 ***************** Stress Tensor *****************
 *                                               *
 *          Cartesian components (GPa)           *
 * --------------------------------------------- *
 *             x             y             z     *
 *                                               *
 *  x      7.866440      0.000000      0.000000  *
 *  y      0.000000      7.867264      0.000000  *
 *  z      0.000000      0.000000      0.399744  *
 *                                               *
 *  Pressure:   -5.3778                          *
 *                                               *
 *************************************************
  
 +------------+-------------+-------------+-----------------+ <-- min BFGS
 |    Step    |   lambda    |   F.delta   |    enthalpy     | <-- min BFGS
 +------------+-------------+-------------+-----------------+ <-- min BFGS
 |  previous  |    0.000000 |    0.001611 |     -176.893144 | <-- min BFGS
 | trial step |    1.000000 |    0.001620 |     -176.937094 | <-- min BFGS
 +------------+-------------+-------------+-----------------+ <-- min BFGS
  
 BFGS: finished iteration     4 with enthalpy= -1.76937094E+002 eV
  
 +-----------+-----------------+-----------------+------------+-----+ <-- BFGS
 | Parameter |      value      |    tolerance    |    units   | OK? | <-- BFGS
 +-----------+-----------------+-----------------+------------+-----+ <-- BFGS
 |  dE/ion   |   4.395043E-002 |   2.000000E-005 |         eV | No  | <-- BFGS
 |   Smax    |   7.867264E+000 |   1.000000E-001 |        GPa | No  | <-- BFGS
 +-----------+-----------------+-----------------+------------+-----+ <-- BFGS
  

================================================================================
 Starting BFGS iteration          5 ...
================================================================================
  
 +------------+-------------+-------------+-----------------+ <-- min BFGS
 |    Step    |   lambda    |   F.delta   |    enthalpy     | <-- min BFGS
 +------------+-------------+-------------+-----------------+ <-- min BFGS
 |  previous  |    0.000000 |    0.001646 |     -176.937094 | <-- min BFGS
 +------------+-------------+-------------+-----------------+ <-- min BFGS
  

--------------------------------------------------------------------------------
 BFGS: starting iteration         5 with trial guess (lambda=  1.000000)
--------------------------------------------------------------------------------
 
+---------------- MEMORY AND SCRATCH DISK ESTIMATES PER NODE -----------------+
|                                                     Memory          Disk    |
| Model and support data                               26.0 MB         0.0 MB |
| Electronic energy minimisation requirements           6.0 MB         0.0 MB |
| Geometry minimisation requirements                    8.8 MB         0.0 MB |
|                                               ----------------------------- |
| Approx. total storage required per node              40.8 MB         0.0 MB |
|                                                                             |
| Requirements will fluctuate during execution and may exceed these estimates |
+-----------------------------------------------------------------------------+
 
 
                           -------------------------------
                                      Unit Cell
                           -------------------------------
        Real Lattice(A)              Reciprocal Lattice(1/A)
   1.6447205  -2.8487333   0.0000000        1.9101073  -1.1028034   0.0000000
   1.6447205   2.8487333   0.0000000        1.9101073   1.1028034   0.0000000
   0.0000000   0.0000000   8.7942630        0.0000000   0.0000000   0.7144641
 
                       Lattice parameters(A)       Cell Angles
                    a =    3.289436          alpha =   90.000000
                    b =    3.289436          beta  =   90.000000
                    c =    8.794263          gamma =  119.999893
 
                Current cell volume =   82.408751 A**3
 
------------------------------------------------------------------------ <-- SCF
SCF loop      Energy           Fermi           Energy gain       Timer   <-- SCF
                               energy          per atom          (sec)   <-- SCF
------------------------------------------------------------------------ <-- SCF
Initial  -1.76929426E+002  0.00000000E+000                        26.30  <-- SCF
      1  -1.76982985E+002 -2.71927809E+000   5.35591243E-002      26.98  <-- SCF
      2  -1.76983013E+002 -2.71928060E+000   2.81267758E-005      27.75  <-- SCF
      3  -1.76981994E+002 -2.75319599E+000  -1.01926784E-003      28.47  <-- SCF
      4  -1.76982017E+002 -2.76065878E+000   2.25727262E-005      29.15  <-- SCF
      5  -1.76982018E+002 -2.76102866E+000   1.70631137E-006      29.73  <-- SCF
      6  -1.76982018E+002 -2.76114733E+000  -4.56327876E-008      30.28  <-- SCF
------------------------------------------------------------------------ <-- SCF
 
Final energy, E             =  -176.9336855366     eV
Final free energy (E-TS)    =  -176.9820184047     eV
(energies not corrected for finite basis set)
 
NB est. 0K energy (E-0.5TS)      =  -176.9578519706     eV
 
 
 ***************** Stress Tensor *****************
 *                                               *
 *          Cartesian components (GPa)           *
 * --------------------------------------------- *
 *             x             y             z     *
 *                                               *
 *  x      7.955860      0.000000      0.000000  *
 *  y      0.000000      7.956759      0.000000  *
 *  z      0.000000      0.000000      0.399738  *
 *                                               *
 *  Pressure:   -5.4375                          *
 *                                               *
 *************************************************
  
 +------------+-------------+-------------+-----------------+ <-- min BFGS
 |    Step    |   lambda    |   F.delta   |    enthalpy     | <-- min BFGS
 +------------+-------------+-------------+-----------------+ <-- min BFGS
 |  previous  |    0.000000 |    0.001646 |     -176.937094 | <-- min BFGS
 | trial step |    1.000000 |    0.001656 |     -176.982018 | <-- min BFGS
 +------------+-------------+-------------+-----------------+ <-- min BFGS
  
 BFGS: finished iteration     5 with enthalpy= -1.76982018E+002 eV
  
 +-----------+-----------------+-----------------+------------+-----+ <-- BFGS
 | Parameter |      value      |    tolerance    |    units   | OK? | <-- BFGS
 +-----------+-----------------+-----------------+------------+-----+ <-- BFGS
 |  dE/ion   |   4.492395E-002 |   2.000000E-005 |         eV | No  | <-- BFGS
 |   Smax    |   7.956759E+000 |   1.000000E-001 |        GPa | No  | <-- BFGS
 +-----------+-----------------+-----------------+------------+-----+ <-- BFGS
  

================================================================================
 Starting BFGS iteration          6 ...
================================================================================
  
 +------------+-------------+-------------+-----------------+ <-- min BFGS
 |    Step    |   lambda    |   F.delta   |    enthalpy     | <-- min BFGS
 +------------+-------------+-------------+-----------------+ <-- min BFGS
 |  previous  |    0.000000 |    0.001684 |     -176.982018 | <-- min BFGS
 +------------+-------------+-------------+-----------------+ <-- min BFGS
  

--------------------------------------------------------------------------------
 BFGS: starting iteration         6 with trial guess (lambda=  1.000000)
--------------------------------------------------------------------------------
 
                           -------------------------------
                                      Unit Cell
                           -------------------------------
        Real Lattice(A)              Reciprocal Lattice(1/A)
   1.6355264  -2.8328069   0.0000000        1.9208449  -1.1090035   0.0000000
   1.6355265   2.8328069   0.0000000        1.9208449   1.1090035   0.0000000
   0.0000000   0.0000000   8.7919131        0.0000000   0.0000000   0.7146551
 
                       Lattice parameters(A)       Cell Angles
                    a =    3.271046          alpha =   90.000000
                    b =    3.271046          beta  =   90.000000
                    c =    8.791913          gamma =  119.999860
 
                Current cell volume =   81.468164 A**3
 
------------------------------------------------------------------------ <-- SCF
SCF loop      Energy           Fermi           Energy gain       Timer   <-- SCF
                               energy          per atom          (sec)   <-- SCF
------------------------------------------------------------------------ <-- SCF
Initial  -1.76975645E+002  0.00000000E+000                        30.57  <-- SCF
      1  -1.77028952E+002 -2.68023565E+000   5.33064837E-002      31.26  <-- SCF
      2  -1.77028981E+002 -2.68023825E+000   2.94219430E-005      32.02  <-- SCF
      3  -1.77027933E+002 -2.71444711E+000  -1.04792705E-003      32.74  <-- SCF
      4  -1.77027956E+002 -2.72208285E+000   2.33394096E-005      33.42  <-- SCF
      5  -1.77027958E+002 -2.72244575E+000   1.82915875E-006      34.00  <-- SCF
      6  -1.77027958E+002 -2.72257988E+000  -1.00206397E-007      34.55  <-- SCF
------------------------------------------------------------------------ <-- SCF
 
Final energy, E             =  -176.9802042614     eV
Final free energy (E-TS)    =  -177.0279582268     eV
(energies not corrected for finite basis set)
 
NB est. 0K energy (E-0.5TS)      =  -177.0040812441     eV
 
 
 ***************** Stress Tensor *****************
 *                                               *
 *          Cartesian components (GPa)           *
 * --------------------------------------------- *
 *             x             y             z     *
 *                                               *
 *  x      8.048331      0.000000      0.000000  *
 *  y      0.000000      8.049311      0.000000  *
 *  z      0.000000      0.000000      0.399607  *
 *                                               *
 *  Pressure:   -5.4991                          *
 *                                               *
 *************************************************
  
 +------------+-------------+-------------+-----------------+ <-- min BFGS
 |    Step    |   lambda    |   F.delta   |    enthalpy     | <-- min BFGS
 +------------+-------------+-------------+-----------------+ <-- min BFGS
 |  previous  |    0.000000 |    0.001684 |     -176.982018 | <-- min BFGS
 | trial step |    1.000000 |    0.001693 |     -177.027958 | <-- min BFGS
 +------------+-------------+-------------+-----------------+ <-- min BFGS
  
 BFGS: finished iteration     6 with enthalpy= -1.77027958E+002 eV
  
 +-----------+-----------------+-----------------+------------+-----+ <-- BFGS
 | Parameter |      value      |    tolerance    |    units   | OK? | <-- BFGS
 +-----------+-----------------+-----------------+------------+-----+ <-- BFGS
 |  dE/ion   |   4.593982E-002 |   2.000000E-005 |         eV | No  | <-- BFGS
 |   Smax    |   8.049311E+000 |   1.000000E-001 |        GPa | No  | <-- BFGS
 +-----------+-----------------+-----------------+------------+-----+ <-- BFGS
  

================================================================================
 Starting BFGS iteration          7 ...
================================================================================
  
 +------------+-------------+-------------+-----------------+ <-- min BFGS
 |    Step    |   lambda    |   F.delta   |    enthalpy     | <-- min BFGS
 +------------+-------------+-------------+-----------------+ <-- min BFGS
 |  previous  |    0.000000 |    0.001722 |     -177.027958 | <-- min BFGS
 +------------+-------------+-------------+-----------------+ <-- min BFGS
  

--------------------------------------------------------------------------------
 BFGS: starting iteration         7 with trial guess (lambda=  1.000000)
--------------------------------------------------------------------------------
 
                           -------------------------------
                                      Unit Cell
                           -------------------------------
        Real Lattice(A)              Reciprocal Lattice(1/A)
   1.6261733  -2.8166047   0.0000000        1.9318929  -1.1153829   0.0000000
   1.6261733   2.8166047   0.0000000        1.9318929   1.1153829   0.0000000
   0.0000000   0.0000000   8.7895634        0.0000000   0.0000000   0.7148461
 
                       Lattice parameters(A)       Cell Angles
                    a =    3.252338          alpha =   90.000000
                    b =    3.252338          beta  =   90.000000
                    c =    8.789563          gamma =  119.999823
 
                Current cell volume =   80.517451 A**3
 
------------------------------------------------------------------------ <-- SCF
SCF loop      Energy           Fermi           Energy gain       Timer   <-- SCF
                               energy          per atom          (sec)   <-- SCF
------------------------------------------------------------------------ <-- SCF
Initial  -1.77023032E+002  0.00000000E+000                        34.84  <-- SCF
      1  -1.77075983E+002 -2.63994743E+000   5.29511010E-002      35.53  <-- SCF
      2  -1.77076014E+002 -2.63995015E+000   3.06535172E-005      36.29  <-- SCF
      3  -1.77074938E+002 -2.67447870E+000  -1.07654798E-003      37.00  <-- SCF
      4  -1.77074960E+002 -2.68229868E+000   2.26099922E-005      37.68  <-- SCF
      5  -1.77074962E+002 -2.68264828E+000   1.95431325E-006      38.26  <-- SCF
      6  -1.77074962E+002 -2.68279599E+000  -2.48996516E-007      38.81  <-- SCF
------------------------------------------------------------------------ <-- SCF
 
Final energy, E             =  -177.0279323956     eV
Final free energy (E-TS)    =  -177.0749618727     eV
(energies not corrected for finite basis set)
 
NB est. 0K energy (E-0.5TS)      =  -177.0514471341     eV
 
 
 ***************** Stress Tensor *****************
 *                                               *
 *          Cartesian components (GPa)           *
 * --------------------------------------------- *
 *             x             y             z     *
 *                                               *
 *  x      8.144344      0.000000      0.000000  *
 *  y      0.000000      8.145415      0.000000  *
 *  z      0.000000      0.000000      0.399412  *
 *                                               *
 *  Pressure:   -5.5631                          *
 *                                               *
 *************************************************
  
 +------------+-------------+-------------+-----------------+ <-- min BFGS
 |    Step    |   lambda    |   F.delta   |    enthalpy     | <-- min BFGS
 +------------+-------------+-------------+-----------------+ <-- min BFGS
 |  previous  |    0.000000 |    0.001722 |     -177.027958 | <-- min BFGS
 | trial step |    1.000000 |    0.001732 |     -177.074962 | <-- min BFGS
 +------------+-------------+-------------+-----------------+ <-- min BFGS
  
 BFGS: finished iteration     7 with enthalpy= -1.77074962E+002 eV
  
 +-----------+-----------------+-----------------+------------+-----+ <-- BFGS
 | Parameter |      value      |    tolerance    |    units   | OK? | <-- BFGS
 +-----------+-----------------+-----------------+------------+-----+ <-- BFGS
 |  dE/ion   |   4.700365E-002 |   2.000000E-005 |         eV | No  | <-- BFGS
 |   Smax    |   8.145415E+000 |   1.000000E-001 |        GPa | No  | <-- BFGS
 +-----------+-----------------+-----------------+------------+-----+ <-- BFGS
  

================================================================================
 Starting BFGS iteration          8 ...
================================================================================
  
 +------------+-------------+-------------+-----------------+ <-- min BFGS
 |    Step    |   lambda    |   F.delta   |    enthalpy     | <-- min BFGS
 +------------+-------------+-------------+-----------------+ <-- min BFGS
 |  previous  |    0.000000 |    0.001763 |     -177.074962 | <-- min BFGS
 +------------+-------------+-------------+-----------------+ <-- min BFGS
  

--------------------------------------------------------------------------------
 BFGS: starting iteration         8 with trial guess (lambda=  1.000000)
--------------------------------------------------------------------------------
 
                           -------------------------------
                                      Unit Cell
                           -------------------------------
        Real Lattice(A)              Reciprocal Lattice(1/A)
   1.6166541  -2.8001148   0.0000000        1.9432683  -1.1219514   0.0000000
   1.6166541   2.8001148   0.0000000        1.9432683   1.1219514   0.0000000
   0.0000000   0.0000000   8.7872142        0.0000000   0.0000000   0.7150372
 
                       Lattice parameters(A)       Cell Angles
                    a =    3.233298          alpha =   90.000000
                    b =    3.233298          beta  =   90.000000
                    c =    8.787214          gamma =  119.999783
 
                Current cell volume =   79.556220 A**3
 
------------------------------------------------------------------------ <-- SCF
SCF loop      Energy           Fermi           Energy gain       Timer   <-- SCF
                               energy          per atom          (sec)   <-- SCF
------------------------------------------------------------------------ <-- SCF
Initial  -1.77071668E+002  0.00000000E+000                        39.10  <-- SCF
      1  -1.77124136E+002 -2.59833872E+000   5.24680214E-002      39.79  <-- SCF
      2  -1.77124168E+002 -2.59834155E+000   3.20021939E-005      40.55  <-- SCF
      3  -1.77123062E+002 -2.63322257E+000  -1.10624701E-003      41.27  <-- SCF
      4  -1.77123082E+002 -2.64122996E+000   2.03831218E-005      41.95  <-- SCF
      5  -1.77123084E+002 -2.64156058E+000   2.19471726E-006      42.53  <-- SCF
      6  -1.77123084E+002 -2.64171620E+000  -2.40248027E-007      43.09  <-- SCF
------------------------------------------------------------------------ <-- SCF
 
Final energy, E             =  -177.0769552653     eV
Final free energy (E-TS)    =  -177.1230842174     eV
(energies not corrected for finite basis set)
 
NB est. 0K energy (E-0.5TS)      =  -177.1000197413     eV
 
 
 ***************** Stress Tensor *****************
 *                                               *
 *          Cartesian components (GPa)           *
 * --------------------------------------------- *
 *             x             y             z     *
 *                                               *
 *  x      8.244301      0.000000      0.000000  *
 *  y      0.000000      8.245422      0.000000  *
 *  z      0.000000      0.000000      0.399067  *
 *                                               *
 *  Pressure:   -5.6296                          *
 *                                               *
 *************************************************
  
 +------------+-------------+-------------+-----------------+ <-- min BFGS
 |    Step    |   lambda    |   F.delta   |    enthalpy     | <-- min BFGS
 +------------+-------------+-------------+-----------------+ <-- min BFGS
 |  previous  |    0.000000 |    0.001763 |     -177.074962 | <-- min BFGS
 | trial step |    1.000000 |    0.001774 |     -177.123084 | <-- min BFGS
 +------------+-------------+-------------+-----------------+ <-- min BFGS
  
 BFGS: finished iteration     8 with enthalpy= -1.77123084E+002 eV
  
 +-----------+-----------------+-----------------+------------+-----+ <-- BFGS
 | Parameter |      value      |    tolerance    |    units   | OK? | <-- BFGS
 +-----------+-----------------+-----------------+------------+-----+ <-- BFGS
 |  dE/ion   |   4.812234E-002 |   2.000000E-005 |         eV | No  | <-- BFGS
 |   Smax    |   8.245422E+000 |   1.000000E-001 |        GPa | No  | <-- BFGS
 +-----------+-----------------+-----------------+------------+-----+ <-- BFGS
  

================================================================================
 Starting BFGS iteration          9 ...
================================================================================
  
 +------------+-------------+-------------+-----------------+ <-- min BFGS
 |    Step    |   lambda    |   F.delta   |    enthalpy     | <-- min BFGS
 +------------+-------------+-------------+-----------------+ <-- min BFGS
 |  previous  |    0.000000 |    0.001806 |     -177.123084 | <-- min BFGS
 +------------+-------------+-------------+-----------------+ <-- min BFGS
  

--------------------------------------------------------------------------------
 BFGS: starting iteration         9 with trial guess (lambda=  1.000000)
--------------------------------------------------------------------------------
 
+---------------- MEMORY AND SCRATCH DISK ESTIMATES PER NODE -----------------+
|                                                     Memory          Disk    |
| Model and support data                               26.1 MB         0.0 MB |
| Electronic energy minimisation requirements           6.0 MB         0.0 MB |
| Geometry minimisation requirements                    8.8 MB         0.0 MB |
|                                               ----------------------------- |
| Approx. total storage required per node              40.9 MB         0.0 MB |
|                                                                             |
| Requirements will fluctuate during execution and may exceed these estimates |
+-----------------------------------------------------------------------------+
 
 
                           -------------------------------
                                      Unit Cell
                           -------------------------------
        Real Lattice(A)              Reciprocal Lattice(1/A)
   1.6069613  -2.7833240   0.0000000        1.9549896  -1.1287197   0.0000000
   1.6069613   2.7833240   0.0000000        1.9549896   1.1287197   0.0000000
   0.0000000   0.0000000   8.7848664        0.0000000   0.0000000   0.7152283
 
                       Lattice parameters(A)       Cell Angles
                    a =    3.213910          alpha =   90.000000
                    b =    3.213910          beta  =   90.000000
                    c =    8.784866          gamma =  119.999740
 
                Current cell volume =   78.584040 A**3
 
------------------------------------------------------------------------ <-- SCF
SCF loop      Energy           Fermi           Energy gain       Timer   <-- SCF
                               energy          per atom          (sec)   <-- SCF
------------------------------------------------------------------------ <-- SCF
Initial  -1.77121642E+002  0.00000000E+000                        43.38  <-- SCF
      1  -1.77173470E+002 -2.55532308E+000   5.18279483E-002      44.07  <-- SCF
      2  -1.77173504E+002 -2.55532605E+000   3.34985841E-005      44.83  <-- SCF
      3  -1.77172364E+002 -2.59055064E+000  -1.13949494E-003      45.55  <-- SCF
      4  -1.77172384E+002 -2.59877455E+000   1.95884044E-005      46.23  <-- SCF
      5  -1.77172386E+002 -2.59907422E+000   2.18930701E-006      46.82  <-- SCF
      6  -1.77172386E+002 -2.59922376E+000   1.43178105E-007      47.39  <-- SCF
------------------------------------------------------------------------ <-- SCF
 
Final energy, E             =  -177.1273671774     eV
Final free energy (E-TS)    =  -177.1723862497     eV
(energies not corrected for finite basis set)
 
NB est. 0K energy (E-0.5TS)      =  -177.1498767136     eV
 
 
 ***************** Stress Tensor *****************
 *                                               *
 *          Cartesian components (GPa)           *
 * --------------------------------------------- *
 *             x             y             z     *
 *                                               *
 *  x      8.348584      0.000000      0.000000  *
 *  y      0.000000      8.349765      0.000000  *
 *  z      0.000000      0.000000      0.397807  *
 *                                               *
 *  Pressure:   -5.6987                          *
 *                                               *
 *************************************************
  
 +------------+-------------+-------------+-----------------+ <-- min BFGS
 |    Step    |   lambda    |   F.delta   |    enthalpy     | <-- min BFGS
 +------------+-------------+-------------+-----------------+ <-- min BFGS
 |  previous  |    0.000000 |    0.001806 |     -177.123084 | <-- min BFGS
 | trial step |    1.000000 |    0.001818 |     -177.172386 | <-- min BFGS
 +------------+-------------+-------------+-----------------+ <-- min BFGS
  
 BFGS: finished iteration     9 with enthalpy= -1.77172386E+002 eV
  
 +-----------+-----------------+-----------------+------------+-----+ <-- BFGS
 | Parameter |      value      |    tolerance    |    units   | OK? | <-- BFGS
 +-----------+-----------------+-----------------+------------+-----+ <-- BFGS
 |  dE/ion   |   4.930203E-002 |   2.000000E-005 |         eV | No  | <-- BFGS
 |   Smax    |   8.349765E+000 |   1.000000E-001 |        GPa | No  | <-- BFGS
 +-----------+-----------------+-----------------+------------+-----+ <-- BFGS
  

================================================================================
 Starting BFGS iteration         10 ...
================================================================================
  
 +------------+-------------+-------------+-----------------+ <-- min BFGS
 |    Step    |   lambda    |   F.delta   |    enthalpy     | <-- min BFGS
 +------------+-------------+-------------+-----------------+ <-- min BFGS
 |  previous  |    0.000000 |    0.001852 |     -177.172386 | <-- min BFGS
 +------------+-------------+-------------+-----------------+ <-- min BFGS
  

--------------------------------------------------------------------------------
 BFGS: starting iteration        10 with trial guess (lambda=  1.000000)
--------------------------------------------------------------------------------
 
                           -------------------------------
                                      Unit Cell
                           -------------------------------
        Real Lattice(A)              Reciprocal Lattice(1/A)
   1.5970867  -2.7662183   0.0000000        1.9670770  -1.1356995   0.0000000
   1.5970867   2.7662183   0.0000000        1.9670770   1.1356995   0.0000000
   0.0000000   0.0000000   8.7825254        0.0000000   0.0000000   0.7154190
 
                       Lattice parameters(A)       Cell Angles
                    a =    3.194159          alpha =   90.000000
                    b =    3.194159          beta  =   90.000000
                    c =    8.782525          gamma =  119.999693
 
                Current cell volume =   77.600472 A**3
 
------------------------------------------------------------------------ <-- SCF
SCF loop      Energy           Fermi           Energy gain       Timer   <-- SCF
                               energy          per atom          (sec)   <-- SCF
------------------------------------------------------------------------ <-- SCF
Initial  -1.77173054E+002  0.00000000E+000                        47.68  <-- SCF
      1  -1.77224056E+002 -2.51069521E+000   5.10017287E-002      48.37  <-- SCF
      2  -1.77224090E+002 -2.51069832E+000   3.49162538E-005      49.13  <-- SCF
      3  -1.77222912E+002 -2.54639836E+000  -1.17837810E-003      49.85  <-- SCF
      4  -1.77222933E+002 -2.55476554E+000   2.05862273E-005      50.53  <-- SCF
      5  -1.77222935E+002 -2.55504478E+000   1.96202145E-006      51.12  <-- SCF
      6  -1.77222934E+002 -2.55521228E+000  -4.45829704E-007      51.68  <-- SCF
------------------------------------------------------------------------ <-- SCF
 
Final energy, E             =  -177.1792684331     eV
Final free energy (E-TS)    =  -177.2229342195     eV
(energies not corrected for finite basis set)
 
NB est. 0K energy (E-0.5TS)      =  -177.2011013263     eV
 
 
 ***************** Stress Tensor *****************
 *                                               *
 *          Cartesian components (GPa)           *
 * --------------------------------------------- *
 *             x             y             z     *
 *                                               *
 *  x      8.457677      0.000000      0.000000  *
 *  y      0.000000      8.458890      0.000000  *
 *  z      0.000000      0.000000      0.397850  *
 *                                               *
 *  Pressure:   -5.7715                          *
 *                                               *
 *************************************************
  
 +------------+-------------+-------------+-----------------+ <-- min BFGS
 |    Step    |   lambda    |   F.delta   |    enthalpy     | <-- min BFGS
 +------------+-------------+-------------+-----------------+ <-- min BFGS
 |  previous  |    0.000000 |    0.001852 |     -177.172386 | <-- min BFGS
 | trial step |    1.000000 |    0.001864 |     -177.222934 | <-- min BFGS
 +------------+-------------+-------------+-----------------+ <-- min BFGS
  
 BFGS: finished iteration    10 with enthalpy= -1.77222934E+002 eV
  
 +-----------+-----------------+-----------------+------------+-----+ <-- BFGS
 | Parameter |      value      |    tolerance    |    units   | OK? | <-- BFGS
 +-----------+-----------------+-----------------+------------+-----+ <-- BFGS
 |  dE/ion   |   5.054797E-002 |   2.000000E-005 |         eV | No  | <-- BFGS
 |   Smax    |   8.458890E+000 |   1.000000E-001 |        GPa | No  | <-- BFGS
 +-----------+-----------------+-----------------+------------+-----+ <-- BFGS
  

================================================================================
 Starting BFGS iteration         11 ...
================================================================================
  
 +------------+-------------+-------------+-----------------+ <-- min BFGS
 |    Step    |   lambda    |   F.delta   |    enthalpy     | <-- min BFGS
 +------------+-------------+-------------+-----------------+ <-- min BFGS
 |  previous  |    0.000000 |    0.001900 |     -177.222934 | <-- min BFGS
 +------------+-------------+-------------+-----------------+ <-- min BFGS
  

--------------------------------------------------------------------------------
 BFGS: starting iteration        11 with trial guess (lambda=  1.000000)
--------------------------------------------------------------------------------
 
                           -------------------------------
                                      Unit Cell
                           -------------------------------
        Real Lattice(A)              Reciprocal Lattice(1/A)
   1.5870213  -2.7487818   0.0000000        1.9795529  -1.1429036   0.0000000
   1.5870213   2.7487818   0.0000000        1.9795529   1.1429036   0.0000000
   0.0000000   0.0000000   8.7801835        0.0000000   0.0000000   0.7156098
 
                       Lattice parameters(A)       Cell Angles
                    a =    3.174025          alpha =   90.000000
                    b =    3.174025          beta  =   90.000000
                    c =    8.780184          gamma =  119.999644
 
                Current cell volume =   76.604910 A**3
 
------------------------------------------------------------------------ <-- SCF
SCF loop      Energy           Fermi           Energy gain       Timer   <-- SCF
                               energy          per atom          (sec)   <-- SCF
------------------------------------------------------------------------ <-- SCF
Initial  -1.77226007E+002  0.00000000E+000                        51.97  <-- SCF
      1  -1.77275962E+002 -2.46466327E+000   4.99550241E-002      52.66  <-- SCF
      2  -1.77275998E+002 -2.46466656E+000   3.63066854E-005      53.43  <-- SCF
      3  -1.77274778E+002 -2.50080501E+000  -1.22025894E-003      54.14  <-- SCF
      4  -1.77274798E+002 -2.50932231E+000   2.07770081E-005      54.82  <-- SCF
      5  -1.77274801E+002 -2.50955398E+000   2.14775554E-006      55.42  <-- SCF
      6  -1.77274800E+002 -2.50970280E+000  -3.20819182E-007      55.98  <-- SCF
------------------------------------------------------------------------ <-- SCF
 
Final energy, E             =  -177.2327648187     eV
Final free energy (E-TS)    =  -177.2748002680     eV
(energies not corrected for finite basis set)
 
NB est. 0K energy (E-0.5TS)      =  -177.2537825434     eV
 
 
 ***************** Stress Tensor *****************
 *                                               *
 *          Cartesian components (GPa)           *
 * --------------------------------------------- *
 *             x             y             z     *
 *                                               *
 *  x      8.571191      0.000000      0.000000  *
 *  y      0.000000      8.572420      0.000000  *
 *  z      0.000000      0.000000      0.397893  *
 *                                               *
 *  Pressure:   -5.8472                          *
 *                                               *
 *************************************************
  
 +------------+-------------+-------------+-----------------+ <-- min BFGS
 |    Step    |   lambda    |   F.delta   |    enthalpy     | <-- min BFGS
 +------------+-------------+-------------+-----------------+ <-- min BFGS
 |  previous  |    0.000000 |    0.001900 |     -177.222934 | <-- min BFGS
 | trial step |    1.000000 |    0.001913 |     -177.274800 | <-- min BFGS
 +------------+-------------+-------------+-----------------+ <-- min BFGS
  
 BFGS: finished iteration    11 with enthalpy= -1.77274800E+002 eV
  
 +-----------+-----------------+-----------------+------------+-----+ <-- BFGS
 | Parameter |      value      |    tolerance    |    units   | OK? | <-- BFGS
 +-----------+-----------------+-----------------+------------+-----+ <-- BFGS
 |  dE/ion   |   5.186605E-002 |   2.000000E-005 |         eV | No  | <-- BFGS
 |   Smax    |   8.572420E+000 |   1.000000E-001 |        GPa | No  | <-- BFGS
 +-----------+-----------------+-----------------+------------+-----+ <-- BFGS
  

================================================================================
 Starting BFGS iteration         12 ...
================================================================================
  
 +------------+-------------+-------------+-----------------+ <-- min BFGS
 |    Step    |   lambda    |   F.delta   |    enthalpy     | <-- min BFGS
 +------------+-------------+-------------+-----------------+ <-- min BFGS
 |  previous  |    0.000000 |    0.001950 |     -177.274800 | <-- min BFGS
 +------------+-------------+-------------+-----------------+ <-- min BFGS
  

--------------------------------------------------------------------------------
 BFGS: starting iteration        12 with trial guess (lambda=  1.000000)
--------------------------------------------------------------------------------
 
+---------------- MEMORY AND SCRATCH DISK ESTIMATES PER NODE -----------------+
|                                                     Memory          Disk    |
| Model and support data                               26.2 MB         0.0 MB |
| Electronic energy minimisation requirements           6.0 MB         0.0 MB |
| Geometry minimisation requirements                    8.8 MB         0.0 MB |
|                                               ----------------------------- |
| Approx. total storage required per node              41.1 MB         0.0 MB |
|                                                                             |
| Requirements will fluctuate during execution and may exceed these estimates |
+-----------------------------------------------------------------------------+
 
 
                           -------------------------------
                                      Unit Cell
                           -------------------------------
        Real Lattice(A)              Reciprocal Lattice(1/A)
   1.5767560  -2.7309992   0.0000000        1.9924405  -1.1503455   0.0000000
   1.5767560   2.7309992   0.0000000        1.9924405   1.1503455   0.0000000
   0.0000000   0.0000000   8.7778408        0.0000000   0.0000000   0.7158008
 
                       Lattice parameters(A)       Cell Angles
                    a =    3.153493          alpha =   90.000000
                    b =    3.153493          beta  =   90.000000
                    c =    8.777841          gamma =  119.999593
 
                Current cell volume =   75.596862 A**3
 
------------------------------------------------------------------------ <-- SCF
SCF loop      Energy           Fermi           Energy gain       Timer   <-- SCF
                               energy          per atom          (sec)   <-- SCF
------------------------------------------------------------------------ <-- SCF
Initial  -1.77280606E+002  0.00000000E+000                        56.27  <-- SCF
      1  -1.77329264E+002 -2.41687919E+000   4.86578330E-002      56.95  <-- SCF
      2  -1.77329302E+002 -2.41688265E+000   3.81109901E-005      57.73  <-- SCF
      3  -1.77328035E+002 -2.45349189E+000  -1.26644513E-003      58.45  <-- SCF
      4  -1.77328057E+002 -2.46214191E+000   2.12869200E-005      59.13  <-- SCF
      5  -1.77328059E+002 -2.46231355E+000   2.23384252E-006      59.73  <-- SCF
      6  -1.77328058E+002 -2.46243174E+000  -6.07192407E-007      60.29  <-- SCF
------------------------------------------------------------------------ <-- SCF
 
Final energy, E             =  -177.2879625018     eV
Final free energy (E-TS)    =  -177.3280582435     eV
(energies not corrected for finite basis set)
 
NB est. 0K energy (E-0.5TS)      =  -177.3080103726     eV
 
 
 ***************** Stress Tensor *****************
 *                                               *
 *          Cartesian components (GPa)           *
 * --------------------------------------------- *
 *             x             y             z     *
 *                                               *
 *  x      8.689500      0.000000      0.000000  *
 *  y      0.000000      8.690742      0.000000  *
 *  z      0.000000      0.000000      0.398152  *
 *                                               *
 *  Pressure:   -5.9261                          *
 *                                               *
 *************************************************
  
 +------------+-------------+-------------+-----------------+ <-- min BFGS
 |    Step    |   lambda    |   F.delta   |    enthalpy     | <-- min BFGS
 +------------+-------------+-------------+-----------------+ <-- min BFGS
 |  previous  |    0.000000 |    0.001950 |     -177.274800 | <-- min BFGS
 | trial step |    1.000000 |    0.001964 |     -177.328058 | <-- min BFGS
 +------------+-------------+-------------+-----------------+ <-- min BFGS
  
 BFGS: finished iteration    12 with enthalpy= -1.77328058E+002 eV
  
 +-----------+-----------------+-----------------+------------+-----+ <-- BFGS
 | Parameter |      value      |    tolerance    |    units   | OK? | <-- BFGS
 +-----------+-----------------+-----------------+------------+-----+ <-- BFGS
 |  dE/ion   |   5.325798E-002 |   2.000000E-005 |         eV | No  | <-- BFGS
 |   Smax    |   8.690742E+000 |   1.000000E-001 |        GPa | No  | <-- BFGS
 +-----------+-----------------+-----------------+------------+-----+ <-- BFGS
  

================================================================================
 Starting BFGS iteration         13 ...
================================================================================
  
 +------------+-------------+-------------+-----------------+ <-- min BFGS
 |    Step    |   lambda    |   F.delta   |    enthalpy     | <-- min BFGS
 +------------+-------------+-------------+-----------------+ <-- min BFGS
 |  previous  |    0.000000 |    0.002004 |     -177.328058 | <-- min BFGS
 +------------+-------------+-------------+-----------------+ <-- min BFGS
  

--------------------------------------------------------------------------------
 BFGS: starting iteration        13 with trial guess (lambda=  1.000000)
--------------------------------------------------------------------------------
 
                           -------------------------------
                                      Unit Cell
                           -------------------------------
        Real Lattice(A)              Reciprocal Lattice(1/A)
   1.5662814  -2.7128537   0.0000000        2.0057652  -1.1580398   0.0000000
[...]
 *************************************************
  
 +------------+-------------+-------------+-----------------+ <-- min BFGS
 |    Step    |   lambda    |   F.delta   |    enthalpy     | <-- min BFGS
 +------------+-------------+-------------+-----------------+ <-- min BFGS
 |  previous  |    0.000000 |    0.000003 |     -179.788606 | <-- min BFGS
 | trial step |    1.000000 |    0.000002 |     -179.788674 | <-- min BFGS
 +------------+-------------+-------------+-----------------+ <-- min BFGS
  

--------------------------------------------------------------------------------
 BFGS: improving iteration        69 with line minimization (lambda=  2.139063)
--------------------------------------------------------------------------------
 
                           -------------------------------
                                      Unit Cell
                           -------------------------------
        Real Lattice(A)              Reciprocal Lattice(1/A)
   1.6362166  -1.6713643  -0.0047919        1.9123395  -1.8873926   0.0703064
   1.6437704   1.6652558  -0.0064810        1.9193799   1.8787931   0.0779922
  -0.0986217  -0.0050152   2.5478853        0.0084789   0.0012293   2.4663699
 
                       Lattice parameters(A)       Cell Angles
                    a =    2.338950          alpha =   91.795881
                    b =    2.339893          beta  =   91.587247
                    c =    2.549798          gamma =   90.980508
 
                Current cell volume =   13.940308 A**3
 
------------------------------------------------------------------------ <-- SCF
SCF loop      Energy           Fermi           Energy gain       Timer   <-- SCF
                               energy          per atom          (sec)   <-- SCF
------------------------------------------------------------------------ <-- SCF
Initial  -1.79782873E+002  0.00000000E+000                       505.86  <-- SCF
      1  -1.79788735E+002  1.04075168E+001   5.86188990E-003     506.52  <-- SCF
      2  -1.79788735E+002  1.04075167E+001   2.05159525E-007     507.05  <-- SCF
      3  -1.79788704E+002  1.04074742E+001  -3.14462385E-005     507.54  <-- SCF
      4  -1.79788704E+002  1.04074487E+001   4.20781960E-009     507.96  <-- SCF
      5  -1.79788704E+002  1.04074435E+001   9.28567610E-008     508.37  <-- SCF
------------------------------------------------------------------------ <-- SCF
 
Final energy, E             =  -179.7830906013     eV
Final free energy (E-TS)    =  -179.7887037576     eV
(energies not corrected for finite basis set)
 
NB est. 0K energy (E-0.5TS)      =  -179.7858971794     eV
 
 
 ***************** Stress Tensor *****************
 *                                               *
 *          Cartesian components (GPa)           *
 * --------------------------------------------- *
 *             x             y             z     *
 *                                               *
 *  x      0.298099      0.011250      0.082108  *
 *  y      0.011250     -0.012363     -0.043275  *
 *  z      0.082108     -0.043275      0.103865  *
 *                                               *
 *  Pressure:   -0.1299                          *
 *                                               *
 *************************************************
  
 +------------+-------------+-------------+-----------------+ <-- min BFGS
 |    Step    |   lambda    |   F.delta   |    enthalpy     | <-- min BFGS
 +------------+-------------+-------------+-----------------+ <-- min BFGS
 |  previous  |    0.000000 |    0.000003 |     -179.788606 | <-- min BFGS
 | trial step |    1.000000 |    0.000002 |     -179.788674 | <-- min BFGS
 |  line step |    2.139063 |    0.000000 |     -179.788704 | <-- min BFGS
 +------------+-------------+-------------+-----------------+ <-- min BFGS
  
 BFGS: finished iteration    69 with enthalpy= -1.79788704E+002 eV
  
 +-----------+-----------------+-----------------+------------+-----+ <-- BFGS
 | Parameter |      value      |    tolerance    |    units   | OK? | <-- BFGS
 +-----------+-----------------+-----------------+------------+-----+ <-- BFGS
 |  dE/ion   |   9.820636E-005 |   2.000000E-005 |         eV | No  | <-- BFGS
 |   Smax    |   2.980992E-001 |   1.000000E-001 |        GPa | No  | <-- BFGS
 +-----------+-----------------+-----------------+------------+-----+ <-- BFGS
  

================================================================================
 Starting BFGS iteration         70 ...
================================================================================
  
 +------------+-------------+-------------+-----------------+ <-- min BFGS
 |    Step    |   lambda    |   F.delta   |    enthalpy     | <-- min BFGS
 +------------+-------------+-------------+-----------------+ <-- min BFGS
 |  previous  |    0.000000 |    0.000001 |     -179.788704 | <-- min BFGS
 +------------+-------------+-------------+-----------------+ <-- min BFGS
  

--------------------------------------------------------------------------------
 BFGS: starting iteration        70 with trial guess (lambda=  1.000000)
--------------------------------------------------------------------------------
 
                           -------------------------------
                                      Unit Cell
                           -------------------------------
        Real Lattice(A)              Reciprocal Lattice(1/A)
   1.6365756  -1.6717386  -0.0061511        1.9125456  -1.8864456   0.0786796
   1.6426851   1.6651754  -0.0056840        1.9200765   1.8794067   0.0770152
  -0.1034493   0.0013324   2.5465943        0.0089052  -0.0003617   2.4676514
 
                       Lattice parameters(A)       Cell Angles
                    a =    2.339472          alpha =   91.751279
                    b =    2.339072          beta  =   91.799083
                    c =    2.548695          gamma =   90.998133
 
                Current cell volume =   13.931203 A**3
 
------------------------------------------------------------------------ <-- SCF
SCF loop      Energy           Fermi           Energy gain       Timer   <-- SCF
                               energy          per atom          (sec)   <-- SCF
------------------------------------------------------------------------ <-- SCF
Initial  -1.79782726E+002  0.00000000E+000                       508.56  <-- SCF
      1  -1.79788745E+002  1.04225982E+001   6.01863177E-003     509.22  <-- SCF
      2  -1.79788745E+002  1.04225982E+001   1.96547540E-007     509.73  <-- SCF
      3  -1.79788720E+002  1.04220937E+001  -2.53626415E-005     510.23  <-- SCF
      4  -1.79788720E+002  1.04218989E+001   4.98237110E-007     510.65  <-- SCF
      5  -1.79788720E+002  1.04218537E+001   7.69263175E-008     511.06  <-- SCF
------------------------------------------------------------------------ <-- SCF
 
Final energy, E             =  -179.7833702917     eV
Final free energy (E-TS)    =  -179.7887203303     eV
(energies not corrected for finite basis set)
 
NB est. 0K energy (E-0.5TS)      =  -179.7860453110     eV
 
 
 ***************** Stress Tensor *****************
 *                                               *
 *          Cartesian components (GPa)           *
 * --------------------------------------------- *
 *             x             y             z     *
 *                                               *
 *  x      0.235289     -0.023163     -0.029277  *
 *  y     -0.023163      0.010747      0.008885  *
 *  z     -0.029277      0.008885     -0.046890  *
 *                                               *
 *  Pressure:   -0.0664                          *
 *                                               *
 *************************************************
  
 +------------+-------------+-------------+-----------------+ <-- min BFGS
 |    Step    |   lambda    |   F.delta   |    enthalpy     | <-- min BFGS
 +------------+-------------+-------------+-----------------+ <-- min BFGS
 |  previous  |    0.000000 |    0.000001 |     -179.788704 | <-- min BFGS
 | trial step |    1.000000 |    0.000000 |     -179.788720 | <-- min BFGS
 +------------+-------------+-------------+-----------------+ <-- min BFGS
  
 BFGS: finished iteration    70 with enthalpy= -1.79788720E+002 eV
  
 +-----------+-----------------+-----------------+------------+-----+ <-- BFGS
 | Parameter |      value      |    tolerance    |    units   | OK? | <-- BFGS
 +-----------+-----------------+-----------------+------------+-----+ <-- BFGS
 |  dE/ion   |   1.657273E-005 |   2.000000E-005 |         eV | Yes | <-- BFGS
 |   Smax    |   2.352893E-001 |   1.000000E-001 |        GPa | No  | <-- BFGS
 +-----------+-----------------+-----------------+------------+-----+ <-- BFGS
  

================================================================================
 Starting BFGS iteration         71 ...
================================================================================
  
 +------------+-------------+-------------+-----------------+ <-- min BFGS
 |    Step    |   lambda    |   F.delta   |    enthalpy     | <-- min BFGS
 +------------+-------------+-------------+-----------------+ <-- min BFGS
 |  previous  |    0.000000 |    0.000000 |     -179.788720 | <-- min BFGS
 +------------+-------------+-------------+-----------------+ <-- min BFGS
  

--------------------------------------------------------------------------------
 BFGS: starting iteration        71 with trial guess (lambda=  1.000000)
--------------------------------------------------------------------------------
 
                           -------------------------------
                                      Unit Cell
                           -------------------------------
        Real Lattice(A)              Reciprocal Lattice(1/A)
   1.6361646  -1.6716780  -0.0059802        1.9129598  -1.8865660   0.0773511
   1.6424166   1.6651604  -0.0057134        1.9204434   1.8793713   0.0765482
  -0.1022441   0.0007461   2.5467846        0.0088002  -0.0002138   2.4674585
 
                       Lattice parameters(A)       Cell Angles
                    a =    2.339140          alpha =   91.742149
                    b =    2.338872          beta  =   91.766274
                    c =    2.548836          gamma =   91.008722
 
                Current cell volume =   13.929090 A**3
 
------------------------------------------------------------------------ <-- SCF
SCF loop      Energy           Fermi           Energy gain       Timer   <-- SCF
                               energy          per atom          (sec)   <-- SCF
------------------------------------------------------------------------ <-- SCF
Initial  -1.79783364E+002  0.00000000E+000                       511.25  <-- SCF
      1  -1.79788726E+002  1.04238938E+001   5.36238603E-003     511.89  <-- SCF
      2  -1.79788726E+002  1.04238938E+001   9.29233454E-008     512.31  <-- SCF
      3  -1.79788725E+002  1.04235471E+001  -1.05295040E-006     512.72  <-- SCF
      4  -1.79788725E+002  1.04234687E+001   1.99374707E-008     513.13  <-- SCF
------------------------------------------------------------------------ <-- SCF
 
Final energy, E             =  -179.7833529906     eV
Final free energy (E-TS)    =  -179.7887251165     eV
(energies not corrected for finite basis set)
 
NB est. 0K energy (E-0.5TS)      =  -179.7860390536     eV
 
 
 ***************** Stress Tensor *****************
 *                                               *
 *          Cartesian components (GPa)           *
 * --------------------------------------------- *
 *             x             y             z     *
 *                                               *
 *  x      0.172268     -0.019187     -0.000657  *
 *  y     -0.019187     -0.021839      0.003445  *
 *  z     -0.000657      0.003445     -0.028624  *
 *                                               *
 *  Pressure:   -0.0406                          *
 *                                               *
 *************************************************
  
 +------------+-------------+-------------+-----------------+ <-- min BFGS
 |    Step    |   lambda    |   F.delta   |    enthalpy     | <-- min BFGS
 +------------+-------------+-------------+-----------------+ <-- min BFGS
 |  previous  |    0.000000 |    0.000000 |     -179.788720 | <-- min BFGS
 | trial step |    1.000000 |    0.000000 |     -179.788725 | <-- min BFGS
 +------------+-------------+-------------+-----------------+ <-- min BFGS
  

--------------------------------------------------------------------------------
 BFGS: improving iteration        71 with line minimization (lambda=  2.257114)
--------------------------------------------------------------------------------
 
                           -------------------------------
                                      Unit Cell
                           -------------------------------
        Real Lattice(A)              Reciprocal Lattice(1/A)
   1.6356479  -1.6716018  -0.0057654        1.9134810  -1.8867176   0.0756807
   1.6420789   1.6651415  -0.0057504        1.9209048   1.8793267   0.0759607
  -0.1007291   0.0000092   2.5470237        0.0086682  -0.0000278   2.4672163
 
                       Lattice parameters(A)       Cell Angles
                    a =    2.338724          alpha =   91.730679
                    b =    2.338622          beta  =   91.725034
                    c =    2.549015          gamma =   91.022037
 
                Current cell volume =   13.926431 A**3
 
------------------------------------------------------------------------ <-- SCF
SCF loop      Energy           Fermi           Energy gain       Timer   <-- SCF
                               energy          per atom          (sec)   <-- SCF
------------------------------------------------------------------------ <-- SCF
Initial  -1.79783337E+002  0.00000000E+000                       513.31  <-- SCF
      1  -1.79788729E+002  1.04260342E+001   5.39172584E-003     513.98  <-- SCF
      2  -1.79788729E+002  1.04260342E+001   1.05135238E-007     514.40  <-- SCF
      3  -1.79788727E+002  1.04255935E+001  -1.63139725E-006     514.81  <-- SCF
      4  -1.79788727E+002  1.04254960E+001   8.87263533E-008     515.22  <-- SCF
------------------------------------------------------------------------ <-- SCF
 
Final energy, E             =  -179.7833268745     eV
Final free energy (E-TS)    =  -179.7887273021     eV
(energies not corrected for finite basis set)
 
NB est. 0K energy (E-0.5TS)      =  -179.7860270883     eV
 
 
 ***************** Stress Tensor *****************
 *                                               *
 *          Cartesian components (GPa)           *
 * --------------------------------------------- *
 *             x             y             z     *
 *                                               *
 *  x      0.091881     -0.013737      0.034667  *
 *  y     -0.013737     -0.063309     -0.003485  *
 *  z      0.034667     -0.003485     -0.004141  *
 *                                               *
 *  Pressure:   -0.0081                          *
 *                                               *
 *************************************************
  
 +------------+-------------+-------------+-----------------+ <-- min BFGS
 |    Step    |   lambda    |   F.delta   |    enthalpy     | <-- min BFGS
 +------------+-------------+-------------+-----------------+ <-- min BFGS
 |  previous  |    0.000000 |    0.000000 |     -179.788720 | <-- min BFGS
 | trial step |    1.000000 |    0.000000 |     -179.788725 | <-- min BFGS
 |  line step |    2.257114 |    0.000000 |     -179.788727 | <-- min BFGS
 +------------+-------------+-------------+-----------------+ <-- min BFGS
  
 BFGS: finished iteration    71 with enthalpy= -1.79788727E+002 eV
  
 +-----------+-----------------+-----------------+------------+-----+ <-- BFGS
 | Parameter |      value      |    tolerance    |    units   | OK? | <-- BFGS
 +-----------+-----------------+-----------------+------------+-----+ <-- BFGS
 |  dE/ion   |   6.971720E-006 |   2.000000E-005 |         eV | Yes | <-- BFGS
 |   Smax    |   9.188122E-002 |   1.000000E-001 |        GPa | Yes | <-- BFGS
 +-----------+-----------------+-----------------+------------+-----+ <-- BFGS
  
 BFGS : Geometry optimization completed successfully.

================================================================================
 BFGS : Final Configuration:
================================================================================
 
                           -------------------------------
                                      Unit Cell
                           -------------------------------
        Real Lattice(A)              Reciprocal Lattice(1/A)
   1.6356479  -1.6716018  -0.0057654        1.9134810  -1.8867176   0.0756807
   1.6420789   1.6651415  -0.0057504        1.9209048   1.8793267   0.0759607
  -0.1007291   0.0000092   2.5470237        0.0086682  -0.0000278   2.4672163
 
                       Lattice parameters(A)       Cell Angles
                    a =    2.338724          alpha =   91.730679
                    b =    2.338622          beta  =   91.725034
                    c =    2.549015          gamma =   91.022037
 
                Current cell volume =   13.926431 A**3
 
 BFGS : Final Enthalpy     = -1.79788727E+002 eV
 BFGS : Final bulk modulus =     431.10033 GPa
  
  **********************************************************
  *** There were at least     3 warnings during this run ***
  *** => please check the whole of this file carefully!  ***
  **********************************************************
 
 *********************************** Forces ***********************************
 *                                                                            *
 *                        Cartesian components (eV/A)                         *
 * -------------------------------------------------------------------------- *
 *                   x                    y                    z              *
 *                                                                            *
 * P         1      0.00000              0.00000              0.00000         *
 *                                                                            *
 ******************************************************************************
 
 ***************** Stress Tensor *****************
 *                                               *
 *          Cartesian components (GPa)           *
 * --------------------------------------------- *
 *             x             y             z     *
 *                                               *
 *  x      0.091881     -0.013737      0.034667  *
 *  y     -0.013737     -0.063309     -0.003485  *
 *  z      0.034667     -0.003485     -0.004141  *
 *                                               *
 *  Pressure:   -0.0081                          *
 *                                               *
 *************************************************
 
 Pseudo atomic calculation performed for P 3s2 3p3
 
 Converged in 12 iterations to a total energy of -174.1228 eV
 
Charge spilling parameter for spin component 1 = 1.67%
 
     Atomic Populations (Mulliken)
     -----------------------------
Species   Ion     s      p      d      f     Total  Charge (e)
==============================================================
  P        1     1.69   3.31   0.00   0.00   5.00     0.00
==============================================================
 
     Bond                     Population      Length (A)
============================================================
============================================================
 
 
Writing model to /dev/shm/check
 
Writing analysis data to P-53301.castep_bin
Initialisation time =      0.13 s
Calculation time    =    515.35 s
Finalisation time   =      0.03 s
Total time          =    515.52 s
Peak Memory Use     = 243680 kB
