 +-------------------------------------------------+
 |                                                 |
 |      CCC   AA    SSS  TTTTT  EEEEE  PPPP        |
 |     C     A  A  S       T    E      P   P       |
 |     C     AAAA   SS     T    EEE    PPPP        |
 |     C     A  A     S    T    E      P           |
 |      CCC  A  A  SSS     T    EEEEE  P           |
 |                                                 |
 +-------------------------------------------------+
 |                                                 |
 | Welcome to Academic Release CASTEP version 6.1  |
 | Ab Initio Total Energy Program                  |
 |                                                 |
 | Authors:                                        |
 | M. Segall, M. Probert, C. Pickard, P. Hasnip,   |
 | S. Clark, K. Refson, J. R. Yates, M. Payne      |
 |                                                 |
 | Contributors:                                   |
 | P. Lindan, P. Haynes, J. White, V. Milman,      |
 | N. Govind, M. Gibson, P. Tulip, V. Cocula,      |
 | B. Montanari, D. Quigley, M. Glover,            |
 | L. Bernasconi, A. Perlov, M. Plummer,           |
 | E. McNellis, J. Meyer, J. Gale, D. Jochym       |
 | J. Aarons, B. Walker, R. Gillen                 |
 |                                                 |
 | Copyright (c) 2000 - 2012                       |
 |                                                 |
 |     Distributed under the terms of an           |
 |     Agreement between the United Kingdom        |
 |     Car-Parrinello (UKCP) Consortium,           |
 |     Daresbury Laboratory and Accelrys, Inc.     |
 |                                                 |
 | Please cite                                     |
 |                                                 |
 |     "First principles methods using CASTEP"     |
 |                                                 |
 |         Zeitschrift fuer Kristallographie       |
 |           220(5-6) pp. 567-570 (2005)           |
 |                                                 |
 | S. J. Clark, M. D. Segall, C. J. Pickard,       |
 | P. J. Hasnip, M. J. Probert, K. Refson,         |
 | M. C. Payne                                     |
 |                                                 |
 |       in all publications arising from          |
 |              your use of CASTEP                 |
 |                                                 |
 +-------------------------------------------------+


 Compiled for linux_x86_64_gfortran-XT on Fri Nov  2 11:09:52 2012
 from source code version 69136e791564+  2012-10-29
 using fast optimisation, fftw3 FFTs and scilib LAPACK and BLAS.


 Pseudo atomic calculation performed for As 4s2 4p3

 Converged in 15 iterations to a total energy of -167.4554 eV

 Calculation parallelised over 46 processes.
 Data is distributed by k-point(46-way)

 ************************************ Title ************************************
 

 ***************************** General Parameters ******************************
  
 output verbosity                               : normal  (1)
 write checkpoint data to                       : As-68326.check
 type of calculation                            : geometry optimization
 stress calculation                             : off
 density difference calculation                 : off
 electron localisation func (ELF) calculation   : off
 Hirshfeld analysis                             : off
 unlimited duration calculation
 timing information                             : on
 memory usage estimate                          : on
 write final potential to formatted file        : off
 write final density to formatted file          : off
 write structure in CELL formatted file         : on
 write BibTeX reference list                    : off
  
 output         length unit                     : A
 output           mass unit                     : amu
 output           time unit                     : ps
 output         charge unit                     : e
 output         energy unit                     : eV
 output          force unit                     : eV/A
 output       velocity unit                     : A/ps
 output       pressure unit                     : GPa
 output     inv_length unit                     : 1/A
 output      frequency unit                     : cm-1
 output force constant unit                     : eV/A**2
 output         volume unit                     : A**3
 output   IR intensity unit                     : (D/A)**2/amu
 output         dipole unit                     : D
 output         efield unit                     : eV/A/e
 output        entropy unit                     : J/mol/K
  
 wavefunctions paging                           : none
 data distribution                              : optimal for this architecture
 optimization strategy                          : maximize speed(+++)

 *********************** Exchange-Correlation Parameters ***********************
  
 using functional                               : Perdew Burke Ernzerhof
 Divergence correction                          : off
 DFT+D: Semi-empirical dispersion correction    : off

 ************************* Pseudopotential Parameters **************************
  
 pseudopotential representation                 : reciprocal space
 <beta|phi> representation                      : reciprocal space

 **************************** Basis Set Parameters *****************************
  
 plane wave basis set cut-off                   :   700.0000   eV
 finite basis set correction                    : automatic
 number of sample energies                      :          3
           sample  spacing                      :     5.0000   eV

 **************************** Electronic Parameters ****************************
  
 number of  electrons                           :  120.0    
 net charge of system                           :  0.000    
 net spin   of system                           :  0.000    
 number of  up  spins                           :  60.00    
 number of down spins                           :  60.00    
 treating system as non-spin-polarized
 number of bands                                :         88

 ********************* Electronic Minimization Parameters **********************
  
 Method: Treating system as metallic with density mixing treatment of electrons,
         and number of  SD  steps               :          1
         and number of  CG  steps               :          4
  
 total energy / atom convergence tol.           : 0.1000E-04   eV
 eigen-energy convergence tolerance             : 0.1000E-05   eV
 max force / atom convergence tol.              : ignored
 convergence tolerance window                   :          3   cycles
 max. number of SCF cycles                      :      10000
 number of fixed-spin iterations                :         10
 smearing scheme                                : Gaussian
 smearing width                                 : 0.2000       eV
 Fermi energy convergence tolerance             : 0.1000E-06   eV
 periodic dipole correction                     : NONE

 ************************** Density Mixing Parameters **************************
  
 density-mixing scheme                          : Broyden
 max. length of mixing history                  :         20
 charge density mixing amplitude                : 0.8000    
 cut-off energy for mixing                      :  700.0       eV

 *********************** Population Analysis Parameters ************************
  
 Population analysis with cutoff                :  3.000       A

 ********************** Geometry Optimization Parameters ***********************
  
 optimization method                            : LBFGS
 max. no. of LBFGS updates                      : unbounded
 variable cell method                           : fixed basis quality
 max. number of steps                           :       1000
 estimated bulk modulus                         :  500.0       GPa
 estimated <frequency>                          :  1668.       cm-1
 geom line minimiser                            : on
 with line minimiser tolerance                  :     0.4000
 total energy convergence tolerance             : 0.2000E-04   eV/atom
        max ionic |force| tolerance             : 0.5000E-01   eV/A
 max ionic |displacement| tolerance             : 0.1000E-02   A
   max |stress component| tolerance             : 0.1000       GPa
 convergence tolerance window                   :          2   steps
 backup results every                           : 2147483647   steps

 *******************************************************************************
  

                           -------------------------------
                                      Unit Cell
                           -------------------------------
        Real Lattice(A)                      Reciprocal Lattice(1/A)
  11.4500000   0.0000000   0.0000000        0.5487498  -0.1829704   0.0678708
   1.7406616   5.2204508   0.0000000        0.0000000   1.2035714  -0.4217512
  -0.0727199   3.7239406  10.6271868        0.0000000   0.0000000   0.5912369

                       Lattice parameters(A)       Cell Angles
                    a =   11.450000          alpha =   71.840000
                    b =    5.503000          beta  =   90.370000
                    c =   11.261000          gamma =   71.560000

                       Current cell volume =  635.231176       A**3

                           -------------------------------
                                     Cell Contents
                           -------------------------------
                         Total number of ions in cell =   24
                      Total number of species in cell =    1
                        Max number of any one species =   24

            xxxxxxxxxxxxxxxxxxxxxxxxxxxxxxxxxxxxxxxxxxxxxxxxxxxxxxxxxxxx
            x  Element    Atom        Fractional coordinates of atoms  x
            x            Number           u          v          w      x
            x----------------------------------------------------------x
            x  As           1         0.678020   0.393700   0.002470   x
            x  As           2         0.321980   0.606300   0.997530   x
            x  As           3         0.529220   0.885100   0.177220   x
            x  As           4         0.470780   0.114900   0.822780   x
            x  As           5         0.189380   0.922020   0.051230   x
            x  As           6         0.810620   0.077980   0.948770   x
            x  As           7         0.555050   0.849090   0.373600   x
            x  As           8         0.444950   0.150910   0.626400   x
            x  As           9         0.026410   0.346710   0.314900   x
            x  As          10         0.973590   0.653290   0.685100   x
            x  As          11         0.871860   0.357220   0.011260   x
            x  As          12         0.128140   0.642780   0.988740   x
            x  As          13         0.671570   0.535350   0.308080   x
            x  As          14         0.328430   0.464650   0.691920   x
            x  As          15         0.477500   0.581270   0.319560   x
            x  As          16         0.522500   0.418730   0.680440   x
            x  As          17         0.135260   0.556210   0.374160   x
            x  As          18         0.864740   0.443790   0.625840   x
            x  As          19         0.813460   0.053470   0.145180   x
            x  As          20         0.186540   0.946530   0.854820   x
            x  As          21         0.142440   0.157130   0.494190   x
            x  As          22         0.857560   0.842870   0.505810   x
            x  As          23         0.226080   0.205140   0.318930   x
            x  As          24         0.773920   0.794860   0.681070   x
            xxxxxxxxxxxxxxxxxxxxxxxxxxxxxxxxxxxxxxxxxxxxxxxxxxxxxxxxxxxx


                         No user defined ionic velocities

                           -------------------------------
                                   Details of Species
                           -------------------------------

                               Mass of species in AMU
                                    As   74.9216000

                          Electric Quadrupole Moment (Barn)
                                    As    0.3140000 Isotope 75

                          Files used for pseudopotentials:
                                    As /work/y07/y07/castep/6.1-phase3/pseudopotentials/As_00PBE.usp

                           -------------------------------
                              k-Points For BZ Sampling
                           -------------------------------
                       MP grid size for SCF calculation is  5 11  5
                         Number of kpoints used =         138

             +++++++++++++++++++++++++++++++++++++++++++++++++++++++
             +  Number       Fractional coordinates        Weight  +
             +-----------------------------------------------------+
             +     1  -0.400000  -0.454545  -0.200000   0.0072727  +
             +     2  -0.400000  -0.363636   0.400000   0.0072727  +
             +     3  -0.400000  -0.272727   0.400000   0.0072727  +
             +     4  -0.400000  -0.181818   0.400000   0.0072727  +
             +     5  -0.400000  -0.090909  -0.400000   0.0072727  +
             +     6  -0.400000  -0.090909  -0.200000   0.0072727  +
             +     7  -0.400000  -0.090909   0.000000   0.0072727  +
             +     8  -0.400000  -0.090909   0.200000   0.0072727  +
             +     9  -0.400000  -0.090909   0.400000   0.0072727  +
             +    10  -0.400000   0.000000  -0.200000   0.0072727  +
             +    11  -0.400000   0.000000   0.000000   0.0072727  +
             +    12  -0.400000   0.000000   0.200000   0.0072727  +
             +    13  -0.400000   0.000000   0.400000   0.0072727  +
             +    14  -0.400000   0.090909  -0.200000   0.0072727  +
             +    15  -0.400000   0.090909   0.000000   0.0072727  +
             +    16  -0.400000   0.090909   0.200000   0.0072727  +
             +    17  -0.400000   0.090909   0.400000   0.0072727  +
             +    18  -0.400000   0.181818  -0.200000   0.0072727  +
             +    19  -0.400000   0.181818   0.000000   0.0072727  +
             +    20  -0.400000   0.181818   0.200000   0.0072727  +
             +    21  -0.400000   0.181818   0.400000   0.0072727  +
             +    22  -0.400000   0.272727  -0.400000   0.0072727  +
             +    23  -0.400000   0.272727  -0.200000   0.0072727  +
             +    24  -0.400000   0.272727   0.000000   0.0072727  +
             +    25  -0.400000   0.272727   0.200000   0.0072727  +
             +    26  -0.400000   0.272727   0.400000   0.0072727  +
             +    27  -0.400000   0.363636   0.000000   0.0072727  +
             +    28  -0.400000   0.363636   0.200000   0.0072727  +
             +    29  -0.400000   0.363636   0.400000   0.0072727  +
             +    30  -0.400000   0.454545  -0.400000   0.0072727  +
             +    31  -0.400000   0.454545  -0.200000   0.0072727  +
             +    32  -0.400000   0.454545   0.200000   0.0072727  +
             +    33  -0.200000  -0.454545  -0.400000   0.0072727  +
             +    34  -0.200000  -0.454545  -0.200000   0.0072727  +
             +    35  -0.200000  -0.454545   0.400000   0.0072727  +
             +    36  -0.200000  -0.363636  -0.400000   0.0072727  +
             +    37  -0.200000  -0.363636  -0.200000   0.0072727  +
             +    38  -0.200000  -0.363636   0.000000   0.0072727  +
             +    39  -0.200000  -0.363636   0.200000   0.0072727  +
             +    40  -0.200000  -0.363636   0.400000   0.0072727  +
             +    41  -0.200000  -0.272727  -0.400000   0.0072727  +
             +    42  -0.200000  -0.272727  -0.200000   0.0072727  +
             +    43  -0.200000  -0.272727   0.000000   0.0072727  +
             +    44  -0.200000  -0.272727   0.200000   0.0072727  +
             +    45  -0.200000  -0.272727   0.400000   0.0072727  +
             +    46  -0.200000  -0.181818  -0.400000   0.0072727  +
             +    47  -0.200000  -0.181818  -0.200000   0.0072727  +
             +    48  -0.200000  -0.181818   0.000000   0.0072727  +
             +    49  -0.200000  -0.181818   0.200000   0.0072727  +
             +    50  -0.200000  -0.181818   0.400000   0.0072727  +
             +    51  -0.200000  -0.090909  -0.400000   0.0072727  +
             +    52  -0.200000  -0.090909  -0.200000   0.0072727  +
             +    53  -0.200000  -0.090909   0.000000   0.0072727  +
             +    54  -0.200000  -0.090909   0.200000   0.0072727  +
             +    55  -0.200000  -0.090909   0.400000   0.0072727  +
             +    56  -0.200000   0.000000  -0.400000   0.0072727  +
             +    57  -0.200000   0.000000  -0.200000   0.0072727  +
             +    58  -0.200000   0.000000   0.000000   0.0072727  +
             +    59  -0.200000   0.000000   0.200000   0.0072727  +
             +    60  -0.200000   0.000000   0.400000   0.0072727  +
             +    61  -0.200000   0.090909  -0.400000   0.0072727  +
             +    62  -0.200000   0.090909  -0.200000   0.0072727  +
             +    63  -0.200000   0.090909   0.000000   0.0072727  +
             +    64  -0.200000   0.090909   0.200000   0.0072727  +
             +    65  -0.200000   0.090909   0.400000   0.0072727  +
             +    66  -0.200000   0.181818  -0.400000   0.0072727  +
             +    67  -0.200000   0.181818  -0.200000   0.0072727  +
             +    68  -0.200000   0.272727  -0.400000   0.0072727  +
             +    69  -0.200000   0.272727  -0.200000   0.0072727  +
             +    70  -0.200000   0.363636  -0.400000   0.0072727  +
             +    71  -0.200000   0.363636  -0.200000   0.0072727  +
             +    72  -0.200000   0.363636   0.000000   0.0072727  +
             +    73  -0.200000   0.363636   0.200000   0.0072727  +
             +    74  -0.200000   0.454545  -0.200000   0.0072727  +
             +    75  -0.200000   0.454545   0.200000   0.0072727  +
             +    76   0.000000  -0.454545   0.400000   0.0072727  +
             +    77   0.000000  -0.363636   0.000000   0.0072727  +
             +    78   0.000000  -0.363636   0.400000   0.0072727  +
             +    79   0.000000  -0.272727   0.400000   0.0072727  +
             +    80   0.000000  -0.181818  -0.400000   0.0072727  +
             +    81   0.000000  -0.181818   0.000000   0.0072727  +
             +    82   0.000000  -0.181818   0.200000   0.0072727  +
             +    83   0.000000  -0.090909  -0.400000   0.0072727  +
             +    84   0.000000  -0.090909  -0.200000   0.0072727  +
             +    85   0.000000  -0.090909   0.000000   0.0072727  +
             +    86   0.000000  -0.090909   0.200000   0.0072727  +
             +    87   0.000000  -0.090909   0.400000   0.0072727  +
             +    88   0.000000   0.000000  -0.400000   0.0072727  +
             +    89   0.000000   0.000000  -0.200000   0.0072727  +
             +    90   0.000000   0.000000   0.000000   0.0036364  +
             +    91   0.000000   0.181818  -0.400000   0.0072727  +
             +    92   0.000000   0.181818   0.200000   0.0072727  +
             +    93   0.000000   0.272727  -0.200000   0.0072727  +
             +    94   0.000000   0.272727   0.000000   0.0072727  +
             +    95   0.000000   0.272727   0.200000   0.0072727  +
             +    96   0.000000   0.272727   0.400000   0.0072727  +
             +    97   0.000000   0.363636  -0.200000   0.0072727  +
             +    98   0.000000   0.363636   0.200000   0.0072727  +
             +    99   0.000000   0.363636   0.400000   0.0072727  +
             +   100   0.000000   0.454545  -0.200000   0.0072727  +
             +   101   0.000000   0.454545   0.000000   0.0072727  +
             +   102   0.000000   0.454545   0.200000   0.0072727  +
             +   103   0.000000   0.454545   0.400000   0.0072727  +
             +   104   0.200000  -0.454545  -0.400000   0.0072727  +
             +   105   0.200000  -0.454545   0.000000   0.0072727  +
             +   106   0.200000  -0.454545   0.400000   0.0072727  +
             +   107   0.200000  -0.363636  -0.400000   0.0072727  +
             +   108   0.200000  -0.272727  -0.400000   0.0072727  +
             +   109   0.200000  -0.272727  -0.200000   0.0072727  +
             +   110   0.200000  -0.272727   0.000000   0.0072727  +
             +   111   0.200000  -0.181818  -0.400000   0.0072727  +
             +   112   0.200000  -0.181818  -0.200000   0.0072727  +
             +   113   0.200000  -0.181818   0.000000   0.0072727  +
             +   114   0.200000   0.454545  -0.200000   0.0072727  +
             +   115   0.200000   0.454545   0.000000   0.0072727  +
             +   116   0.400000  -0.454545  -0.400000   0.0072727  +
             +   117   0.400000  -0.454545   0.000000   0.0072727  +
             +   118   0.400000  -0.363636   0.200000   0.0072727  +
             +   119   0.400000  -0.363636   0.400000   0.0072727  +
             +   120   0.400000  -0.181818   0.400000   0.0072727  +
             +   121   0.400000  -0.090909   0.400000   0.0072727  +
             +   122   0.400000   0.000000   0.400000   0.0072727  +
             +   123   0.400000   0.181818  -0.200000   0.0072727  +
             +   124   0.400000   0.181818   0.000000   0.0072727  +
             +   125   0.400000   0.181818   0.200000   0.0072727  +
             +   126   0.400000   0.181818   0.400000   0.0072727  +
             +   127   0.400000   0.272727  -0.200000   0.0072727  +
             +   128   0.400000   0.272727   0.000000   0.0072727  +
             +   129   0.400000   0.272727   0.200000   0.0072727  +
             +   130   0.400000   0.272727   0.400000   0.0072727  +
             +   131   0.400000   0.363636  -0.200000   0.0072727  +
             +   132   0.400000   0.363636   0.000000   0.0072727  +
             +   133   0.400000   0.363636   0.200000   0.0072727  +
             +   134   0.400000   0.363636   0.400000   0.0072727  +
             +   135   0.400000   0.454545  -0.400000   0.0072727  +
             +   136   0.400000   0.454545  -0.200000   0.0072727  +
             +   137   0.400000   0.454545   0.000000   0.0072727  +
             +   138   0.400000   0.454545   0.400000   0.0072727  +
             +++++++++++++++++++++++++++++++++++++++++++++++++++++++

                           -------------------------------
                               Symmetry and Constraints
                           -------------------------------

         There are no symmetry operations specified or generated for this cell
                      Number of ionic constraints     =           3
                      Maximum deviation from symmetry =  0.00000         ANG
               Point group of crystal =     1: C1, 1, 1

                          Centre of mass is constrained
             Set iprint > 1 for details of linear ionic constraints

                         Number of cell constraints= 0
                         Cell constraints are:  1 2 3 4 5 6

                         External pressure/stress (GPa)
                          0.00000   0.00000   0.00000
                                    0.00000   0.00000
                                              0.00000
  
+---------------- MEMORY AND SCRATCH DISK ESTIMATES PER NODE -----------------+
|                                                     Memory          Disk    |
| Model and support data                              369.1 MB         0.0 MB |
| Electronic energy minimisation requirements         281.8 MB         0.0 MB |
|                                               ----------------------------- |
| Approx. total storage required per node             650.9 MB         0.0 MB |
|                                                                             |
| Requirements will fluctuate during execution and may exceed these estimates |
+-----------------------------------------------------------------------------+
Calculating finite basis set correction with  3 cut-off energies.
Calculating total energy with cut-off of  690.000eV.
------------------------------------------------------------------------ <-- SCF
SCF loop      Energy           Fermi           Energy gain       Timer   <-- SCF
                               energy          per atom          (sec)   <-- SCF
------------------------------------------------------------------------ <-- SCF
Initial   1.54421804E+003  0.00000000E+000                        24.69  <-- SCF
      1  -3.71096888E+003  5.25355112E-001   2.18966122E+002     161.10  <-- SCF
      2  -4.10305493E+003 -2.61530894E+000   1.63369184E+001     252.01  <-- SCF
      3  -4.11672805E+003 -2.60159010E+000   5.69713553E-001     355.90  <-- SCF
      4  -4.11334316E+003 -2.05692032E+000  -1.41037140E-001     471.12  <-- SCF
      5  -4.11337048E+003 -1.99637126E+000   1.13820678E-003     607.21  <-- SCF
      6  -4.11338511E+003 -1.94659670E+000   6.09759828E-004     727.45  <-- SCF
      7  -4.11338821E+003 -1.94457775E+000   1.28928878E-004     859.16  <-- SCF
      8  -4.11338880E+003 -1.94143034E+000   2.46191342E-005     959.70  <-- SCF
      9  -4.11338885E+003 -1.94059449E+000   2.11528394E-006    1043.92  <-- SCF
     10  -4.11338885E+003 -1.94063692E+000   1.14878182E-007    1126.44  <-- SCF
     11  -4.11338885E+003 -1.94059855E+000   3.71048693E-008    1208.75  <-- SCF
------------------------------------------------------------------------ <-- SCF
 
Final energy, E             =  -4113.388851431     eV
Final free energy (E-TS)    =  -4113.388851431     eV
(energies not corrected for finite basis set)
 
NB est. 0K energy (E-0.5TS)      =  -4113.388851431     eV
 
Calculating total energy with cut-off of  695.000eV.
------------------------------------------------------------------------ <-- SCF
SCF loop      Energy           Fermi           Energy gain       Timer   <-- SCF
                               energy          per atom          (sec)   <-- SCF
------------------------------------------------------------------------ <-- SCF
Initial  -4.11338885E+003  0.00000000E+000                      1243.09  <-- SCF
      1  -4.11338962E+003 -1.94042676E+000   3.19751286E-005    1345.13  <-- SCF
      2  -4.11338962E+003 -1.94042676E+000   5.54378534E-009    1427.19  <-- SCF
      3  -4.11338962E+003 -1.94046166E+000  -7.43431491E-009    1507.86  <-- SCF
      4  -4.11338962E+003 -1.94049075E+000  -7.15776209E-010    1588.03  <-- SCF
------------------------------------------------------------------------ <-- SCF
 
Final energy, E             =  -4113.389618482     eV
Final free energy (E-TS)    =  -4113.389618482     eV
(energies not corrected for finite basis set)
 
NB est. 0K energy (E-0.5TS)      =  -4113.389618482     eV
 
Calculating total energy with cut-off of  700.000eV.
------------------------------------------------------------------------ <-- SCF
SCF loop      Energy           Fermi           Energy gain       Timer   <-- SCF
                               energy          per atom          (sec)   <-- SCF
------------------------------------------------------------------------ <-- SCF
Initial  -4.11338962E+003  0.00000000E+000                      1622.55  <-- SCF
      1  -4.11339039E+003 -1.94061904E+000   3.20592798E-005    1724.87  <-- SCF
      2  -4.11339039E+003 -1.94061907E+000   2.76423929E-009    1804.61  <-- SCF
      3  -4.11339039E+003 -1.94058389E+000  -1.26031008E-010    1884.16  <-- SCF
      4  -4.11339039E+003 -1.94056684E+000   2.04014910E-010    1963.43  <-- SCF
------------------------------------------------------------------------ <-- SCF
 
Final energy, E             =  -4113.390387836     eV
Final free energy (E-TS)    =  -4113.390387836     eV
(energies not corrected for finite basis set)
 
NB est. 0K energy (E-0.5TS)      =  -4113.390387836     eV
 
 For future reference: finite basis dEtot/dlog(Ecut) =      -0.106808eV
 Total energy corrected for finite basis set =   -4113.390385 eV
 
+---------------- MEMORY AND SCRATCH DISK ESTIMATES PER NODE -----------------+
|                                                     Memory          Disk    |
| Model and support data                              374.0 MB         0.0 MB |
| Electronic energy minimisation requirements         281.8 MB         0.0 MB |
| Geometry minimisation requirements                  393.4 MB         0.0 MB |
|                                               ----------------------------- |
| Approx. total storage required per node            1049.3 MB         0.0 MB |
|                                                                             |
| Requirements will fluctuate during execution and may exceed these estimates |
+-----------------------------------------------------------------------------+
 

 *********************************** Forces ***********************************
 *                                                                            *
 *                        Cartesian components (eV/A)                         *
 * -------------------------------------------------------------------------- *
 *                   x                    y                    z              *
 *                                                                            *
 * As        1     -7.17739              5.67341             -1.63287         *
 * As        2      7.17739             -5.67341              1.63287         *
 * As        3     -0.06735              3.07767             -8.54495         *
 * As        4      0.06735             -3.07767              8.54495         *
 * As        5      0.34288              7.28597              5.61347         *
 * As        6     -0.34288             -7.28597             -5.61347         *
 * As        7      1.28820              7.11251              5.82306         *
 * As        8     -1.28820             -7.11251             -5.82306         *
 * As        9     -8.09875             -0.44121             -4.47727         *
 * As       10      8.09875              0.44121              4.47727         *
 * As       11      8.17250              4.73729             -1.26127         *
 * As       12     -8.17249             -4.73729              1.26127         *
 * As       13      6.86428             -6.30889              0.68182         *
 * As       14     -6.86428              6.30889             -0.68182         *
 * As       15     -7.99522             -4.19521              1.92183         *
 * As       16      7.99522              4.19521             -1.92183         *
 * As       17      3.06560              8.81569             -0.17690         *
 * As       18     -3.06560             -8.81569              0.17690         *
 * As       19     -0.63358             -3.10439              8.53332         *
 * As       20      0.63358              3.10439             -8.53332         *
 * As       21     -1.10449             -2.84758              8.52832         *
 * As       22      1.10449              2.84758             -8.52832         *
 * As       23      6.06287             -5.60776             -4.01359         *
 * As       24     -6.06287              5.60776              4.01359         *
 *                                                                            *
 ******************************************************************************

 ***************** Stress Tensor *****************
 *                                               *
 *          Cartesian components (GPa)           *
 * --------------------------------------------- *
 *             x             y             z     *
 *                                               *
 *  x    -26.505160     -0.116590      0.034703  *
 *  y     -0.116590    -26.537737     -0.150175  *
 *  z      0.034703     -0.150175    -26.001851  *
 *                                               *
 *  Pressure:   26.3482                          *
 *                                               *
 *************************************************
 BFGS: finished iteration     0 with enthalpy= -4.11339038E+003 eV
  
 +-----------+-----------------+-----------------+------------+-----+ <-- BFGS
 | Parameter |      value      |    tolerance    |    units   | OK? | <-- BFGS
 +-----------+-----------------+-----------------+------------+-----+ <-- BFGS
 |  dE/ion   |   0.000000E+000 |   2.000000E-005 |         eV | No  | <-- BFGS
 |  |F|max   |   9.530077E+000 |   5.000000E-002 |       eV/A | No  | <-- BFGS
 |  |dR|max  |   0.000000E+000 |   1.000000E-003 |          A | No  | <-- BFGS
 |   Smax    |   2.653774E+001 |   1.000000E-001 |        GPa | No  | <-- BFGS
 +-----------+-----------------+-----------------+------------+-----+ <-- BFGS
  

================================================================================
 Starting BFGS iteration          1 ...
================================================================================
  
 +------------+-------------+-------------+-----------------+ <-- min BFGS
 |    Step    |   lambda    |   F.delta   |    enthalpy     | <-- min BFGS
 +------------+-------------+-------------+-----------------+ <-- min BFGS
 |  previous  |    0.000000 |    0.300664 |    -4113.390385 | <-- min BFGS
 +------------+-------------+-------------+-----------------+ <-- min BFGS
  

--------------------------------------------------------------------------------
 BFGS: starting iteration         1 with trial guess (lambda=  1.000000)
--------------------------------------------------------------------------------
 
+---------------- MEMORY AND SCRATCH DISK ESTIMATES PER NODE -----------------+
|                                                     Memory          Disk    |
| Model and support data                              384.6 MB         0.0 MB |
| Electronic energy minimisation requirements         295.5 MB         0.0 MB |
| Geometry minimisation requirements                  412.8 MB         0.0 MB |
|                                               ----------------------------- |
| Approx. total storage required per node            1092.9 MB         0.0 MB |
|                                                                             |
| Requirements will fluctuate during execution and may exceed these estimates |
+-----------------------------------------------------------------------------+
 

                           -------------------------------
                                      Unit Cell
                           -------------------------------
        Real Lattice(A)              Reciprocal Lattice(1/A)
  11.6523227   0.0008900  -0.0002649        0.5392370  -0.1798373   0.0667443
   1.7718251   5.3129453   0.0004824       -0.0000998   1.1826890  -0.4146813
  -0.0739612   3.7908822  10.8117790        0.0000132  -0.0000572   0.5811627

                       Lattice parameters(A)       Cell Angles
                    a =   11.652323          alpha =   71.825381
                    b =    5.600603          beta  =   90.369648
                    c =   11.457348          gamma =   71.552491

                Current cell volume =  669.297036 A**3

                           -------------------------------
                                     Cell Contents
                           -------------------------------

            xxxxxxxxxxxxxxxxxxxxxxxxxxxxxxxxxxxxxxxxxxxxxxxxxxxxxxxxxxxx
            x  Element    Atom        Fractional coordinates of atoms  x
            x            Number           u          v          w      x
            x----------------------------------------------------------x
            x  As           1         0.676963   0.395261   0.002270   x
            x  As           2         0.323037   0.604739   0.997730   x
            x  As           3         0.528975   0.886618   0.176171   x
            x  As           4         0.471025   0.113382   0.823829   x
            x  As           5         0.189221   0.923349   0.051919   x
            x  As           6         0.810779   0.076651   0.948081   x
            x  As           7         0.555009   0.850358   0.374315   x
            x  As           8         0.444991   0.149642   0.625685   x
            x  As           9         0.025441   0.346992   0.314350   x
            x  As          10         0.974559   0.653008   0.685650   x
            x  As          11         0.872594   0.358515   0.011105   x
            x  As          12         0.127406   0.641485   0.988895   x
            x  As          13         0.672602   0.533713   0.308164   x
            x  As          14         0.327398   0.466287   0.691836   x
            x  As          15         0.476775   0.580053   0.319796   x
            x  As          16         0.523225   0.419947   0.680204   x
            x  As          17         0.135272   0.558429   0.374138   x
            x  As          18         0.864728   0.441571   0.625862   x
            x  As          19         0.813626   0.051947   0.146228   x
            x  As          20         0.186374   0.948053   0.853772   x
            x  As          21         0.142543   0.155671   0.495237   x
            x  As          22         0.857457   0.844329   0.504763   x
            x  As          23         0.226927   0.204090   0.318437   x
            x  As          24         0.773073   0.795910   0.681563   x
            xxxxxxxxxxxxxxxxxxxxxxxxxxxxxxxxxxxxxxxxxxxxxxxxxxxxxxxxxxxx


------------------------------------------------------------------------ <-- SCF
SCF loop      Energy           Fermi           Energy gain       Timer   <-- SCF
                               energy          per atom          (sec)   <-- SCF
------------------------------------------------------------------------ <-- SCF
Initial  -4.11876981E+003  0.00000000E+000                      2401.28  <-- SCF
      1  -4.12075324E+003 -2.06431812E+000   8.26429604E-002    2508.45  <-- SCF
      2  -4.12076820E+003 -2.06439475E+000   6.23503655E-004    2664.75  <-- SCF
      3  -4.12037174E+003 -2.05001459E+000  -1.65193956E-002    2780.64  <-- SCF
      4  -4.12035109E+003 -2.01526980E+000  -8.60246048E-004    2911.20  <-- SCF
      5  -4.12035071E+003 -2.01050432E+000  -1.59776680E-005    3040.06  <-- SCF
      6  -4.12035083E+003 -2.01020137E+000   5.21295201E-006    3126.58  <-- SCF
      7  -4.12035086E+003 -2.00977153E+000   1.28230721E-006    3209.28  <-- SCF
------------------------------------------------------------------------ <-- SCF
 
Final energy, E             =  -4120.350861942     eV
Final free energy (E-TS)    =  -4120.350861942     eV
(energies not corrected for finite basis set)
 
NB est. 0K energy (E-0.5TS)      =  -4120.350861942     eV
 

 *********************************** Forces ***********************************
 *                                                                            *
 *                        Cartesian components (eV/A)                         *
 * -------------------------------------------------------------------------- *
 *                   x                    y                    z              *
 *                                                                            *
 * As        1     -5.00602              4.02731             -1.14984         *
 * As        2      5.00602             -4.02731              1.14984         *
 * As        3      0.00294              2.10621             -6.03850         *
 * As        4     -0.00294             -2.10621              6.03850         *
 * As        5      0.21994              5.09871              3.88046         *
 * As        6     -0.21994             -5.09871             -3.88046         *
 * As        7      0.87662              4.91595              4.05864         *
 * As        8     -0.87662             -4.91595             -4.05864         *
 * As        9     -5.62502             -0.19701             -3.10405         *
 * As       10      5.62502              0.19701              3.10405         *
 * As       11      5.74121              3.35536             -0.90688         *
 * As       12     -5.74121             -3.35536              0.90688         *
 * As       13      4.82185             -4.42424              0.47773         *
 * As       14     -4.82185              4.42424             -0.47773         *
 * As       15     -5.60908             -2.93502              1.37156         *
 * As       16      5.60908              2.93502             -1.37156         *
 * As       17      2.10524              6.15673             -0.11348         *
 * As       18     -2.10524             -6.15673              0.11348         *
 * As       19     -0.45525             -2.19592              6.02032         *
 * As       20      0.45525              2.19592             -6.02032         *
 * As       21     -0.80700             -1.96452              5.94339         *
 * As       22      0.80700              1.96452             -5.94339         *
 * As       23      4.23915             -3.84825             -2.86806         *
 * As       24     -4.23915              3.84825              2.86806         *
 *                                                                            *
 ******************************************************************************

 ***************** Stress Tensor *****************
 *                                               *
 *          Cartesian components (GPa)           *
 * --------------------------------------------- *
 *             x             y             z     *
 *                                               *
 *  x    -18.153215     -0.094512      0.038680  *
 *  y     -0.094512    -18.156968     -0.129797  *
 *  z      0.038680     -0.129797    -17.788472  *
 *                                               *
 *  Pressure:   18.0329                          *
 *                                               *
 *************************************************
  
 +------------+-------------+-------------+-----------------+ <-- min BFGS
 |    Step    |   lambda    |   F.delta   |    enthalpy     | <-- min BFGS
 +------------+-------------+-------------+-----------------+ <-- min BFGS
 |  previous  |    0.000000 |    0.300664 |    -4113.390385 | <-- min BFGS
 | trial step |    1.000000 |    0.213383 |    -4120.350861 | <-- min BFGS
 +------------+-------------+-------------+-----------------+ <-- min BFGS
  
 BFGS: finished iteration     1 with enthalpy= -4.12035086E+003 eV
  
 +-----------+-----------------+-----------------+------------+-----+ <-- BFGS
 | Parameter |      value      |    tolerance    |    units   | OK? | <-- BFGS
 +-----------+-----------------+-----------------+------------+-----+ <-- BFGS
 |  dE/ion   |   2.900198E-001 |   2.000000E-005 |         eV | No  | <-- BFGS
 |  |F|max   |   6.711360E+000 |   5.000000E-002 |       eV/A | No  | <-- BFGS
 |  |dR|max  |   1.265560E-002 |   1.000000E-003 |          A | No  | <-- BFGS
 |   Smax    |   1.815697E+001 |   1.000000E-001 |        GPa | No  | <-- BFGS
 +-----------+-----------------+-----------------+------------+-----+ <-- BFGS
  

================================================================================
 Starting BFGS iteration          2 ...
================================================================================
  
 +------------+-------------+-------------+-----------------+ <-- min BFGS
 |    Step    |   lambda    |   F.delta   |    enthalpy     | <-- min BFGS
 +------------+-------------+-------------+-----------------+ <-- min BFGS
 |  previous  |    0.000000 |    0.521748 |    -4120.350861 | <-- min BFGS
 +------------+-------------+-------------+-----------------+ <-- min BFGS
  

--------------------------------------------------------------------------------
 BFGS: starting iteration         2 with trial guess (lambda=  0.535318)
--------------------------------------------------------------------------------
 
+---------------- MEMORY AND SCRATCH DISK ESTIMATES PER NODE -----------------+
|                                                     Memory          Disk    |
| Model and support data                              399.0 MB         0.0 MB |
| Electronic energy minimisation requirements         314.0 MB         0.0 MB |
| Geometry minimisation requirements                  439.2 MB         0.0 MB |
|                                               ----------------------------- |
| Approx. total storage required per node            1152.2 MB         0.0 MB |
|                                                                             |
| Requirements will fluctuate during execution and may exceed these estimates |
+-----------------------------------------------------------------------------+
 

                           -------------------------------
                                      Unit Cell
                           -------------------------------
        Real Lattice(A)              Reciprocal Lattice(1/A)
  11.9169073   0.0022473  -0.0008229        0.5272873  -0.1759131   0.0653422
   1.8126668   5.4338072   0.0012484       -0.0002461   1.1564890  -0.4058282
  -0.0757181   3.8786739  11.0531058        0.0000393  -0.0001437   0.5685050

                       Lattice parameters(A)       Cell Angles
                    a =   11.916907          alpha =   71.804822
                    b =    5.728178          beta  =   90.370508
                    c =   11.714136          gamma =   71.540984

                Current cell volume =  715.625911 A**3

                           -------------------------------
                                     Cell Contents
                           -------------------------------

            xxxxxxxxxxxxxxxxxxxxxxxxxxxxxxxxxxxxxxxxxxxxxxxxxxxxxxxxxxxx
            x  Element    Atom        Fractional coordinates of atoms  x
            x            Number           u          v          w      x
            x----------------------------------------------------------x
            x  As           1         0.675575   0.397339   0.002005   x
            x  As           2         0.324425   0.602661   0.997995   x
            x  As           3         0.528666   0.888598   0.174780   x
            x  As           4         0.471334   0.111402   0.825220   x
            x  As           5         0.189007   0.925104   0.052813   x
            x  As           6         0.810993   0.074896   0.947187   x
            x  As           7         0.554953   0.851997   0.375250   x
            x  As           8         0.445047   0.148003   0.624750   x
            x  As           9         0.024170   0.347409   0.313635   x
            x  As          10         0.975830   0.652591   0.686365   x
            x  As          11         0.873558   0.360238   0.010896   x
            x  As          12         0.126442   0.639762   0.989104   x
            x  As          13         0.673961   0.531560   0.308274   x
            x  As          14         0.326039   0.468440   0.691726   x
            x  As          15         0.475821   0.578451   0.320112   x
            x  As          16         0.524179   0.421549   0.679888   x
            x  As          17         0.135280   0.561336   0.374112   x
            x  As          18         0.864720   0.438664   0.625888   x
            x  As          19         0.813844   0.049928   0.147615   x
            x  As          20         0.186156   0.950072   0.852385   x
            x  As          21         0.142667   0.153773   0.496606   x
            x  As          22         0.857333   0.846227   0.503394   x
            x  As          23         0.228033   0.202756   0.317776   x
            x  As          24         0.771967   0.797244   0.682224   x
            xxxxxxxxxxxxxxxxxxxxxxxxxxxxxxxxxxxxxxxxxxxxxxxxxxxxxxxxxxxx


------------------------------------------------------------------------ <-- SCF
SCF loop      Energy           Fermi           Energy gain       Timer   <-- SCF
                               energy          per atom          (sec)   <-- SCF
------------------------------------------------------------------------ <-- SCF
Initial  -4.12351839E+003  0.00000000E+000                      3660.95  <-- SCF
      1  -4.12696278E+003 -2.15110383E+000   1.43516108E-001    3766.42  <-- SCF
      2  -4.12698871E+003 -2.15123191E+000   1.08056183E-003    3925.70  <-- SCF
      3  -4.12624484E+003 -2.13930063E+000  -3.09947729E-002    4040.06  <-- SCF
      4  -4.12621011E+003 -2.09618253E+000  -1.44715754E-003    4170.79  <-- SCF
      5  -4.12620931E+003 -2.08918357E+000  -3.33711795E-005    4311.51  <-- SCF
      6  -4.12620953E+003 -2.08876967E+000   9.22628682E-006    4401.60  <-- SCF
      7  -4.12620959E+003 -2.08839377E+000   2.47465929E-006    4486.29  <-- SCF
      8  -4.12620959E+003 -2.08842672E+000   2.54344367E-007    4570.60  <-- SCF
------------------------------------------------------------------------ <-- SCF
 
Final energy, E             =  -4126.209592973     eV
Final free energy (E-TS)    =  -4126.209592973     eV
(energies not corrected for finite basis set)
 
NB est. 0K energy (E-0.5TS)      =  -4126.209592973     eV
 

 *********************************** Forces ***********************************
 *                                                                            *
 *                        Cartesian components (eV/A)                         *
 * -------------------------------------------------------------------------- *
 *                   x                    y                    z              *
 *                                                                            *
 * As        1     -2.73904              2.24066             -0.56539         *
 * As        2      2.73904             -2.24066              0.56539         *
 * As        3      0.10799              1.22408             -3.24691         *
 * As        4     -0.10799             -1.22408              3.24691         *
 * As        5      0.05417              2.74486              2.11380         *
 * As        6     -0.05417             -2.74486             -2.11380         *
 * As        7      0.46149              2.71719              2.27077         *
 * As        8     -0.46149             -2.71719             -2.27077         *
 * As        9     -3.08698             -0.03583             -1.72134         *
 * As       10      3.08698              0.03583              1.72134         *
 * As       11      3.18185              1.79801             -0.45772         *
 * As       12     -3.18185             -1.79801              0.45772         *
 * As       13      2.66429             -2.36046              0.22320         *
 * As       14     -2.66429              2.36046             -0.22320         *
 * As       15     -3.12722             -1.50239              0.73755         *
 * As       16      3.12722              1.50239             -0.73755         *
 * As       17      1.20228              3.36351             -0.09908         *
 * As       18     -1.20228             -3.36351              0.09908         *
 * As       19     -0.29047             -1.25778              3.34721         *
 * As       20      0.29047              1.25778             -3.34721         *
 * As       21     -0.45843             -1.03646              3.16276         *
 * As       22      0.45843              1.03646             -3.16276         *
 * As       23      2.37845             -2.03196             -1.54970         *
 * As       24     -2.37845              2.03196              1.54970         *
 *                                                                            *
 ******************************************************************************

 ***************** Stress Tensor *****************
 *                                               *
 *          Cartesian components (GPa)           *
 * --------------------------------------------- *
 *             x             y             z     *
 *                                               *
 *  x     -9.739928     -0.049512      0.008527  *
 *  y     -0.049512     -9.704637     -0.093917  *
 *  z      0.008527     -0.093917     -9.544355  *
 *                                               *
 *  Pressure:    9.6630                          *
 *                                               *
 *************************************************
  
 +------------+-------------+-------------+-----------------+ <-- min BFGS
 |    Step    |   lambda    |   F.delta   |    enthalpy     | <-- min BFGS
 +------------+-------------+-------------+-----------------+ <-- min BFGS
 |  previous  |    0.000000 |    0.521748 |    -4120.350861 | <-- min BFGS
 | trial step |    0.535318 |    0.292132 |    -4126.209592 | <-- min BFGS
 +------------+-------------+-------------+-----------------+ <-- min BFGS
  
 BFGS: finished iteration     2 with enthalpy= -4.12620959E+003 eV
  
 +-----------+-----------------+-----------------+------------+-----+ <-- BFGS
 | Parameter |      value      |    tolerance    |    units   | OK? | <-- BFGS
 +-----------+-----------------+-----------------+------------+-----+ <-- BFGS
 |  dE/ion   |   2.441138E-001 |   2.000000E-005 |         eV | No  | <-- BFGS
 |  |F|max   |   3.683269E+000 |   5.000000E-002 |       eV/A | No  | <-- BFGS
 |  |dR|max  |   1.710921E-002 |   1.000000E-003 |          A | No  | <-- BFGS
 |   Smax    |   9.739928E+000 |   1.000000E-001 |        GPa | No  | <-- BFGS
 +-----------+-----------------+-----------------+------------+-----+ <-- BFGS
  

================================================================================
 Starting BFGS iteration          3 ...
================================================================================
  
 +------------+-------------+-------------+-----------------+ <-- min BFGS
 |    Step    |   lambda    |   F.delta   |    enthalpy     | <-- min BFGS
 +------------+-------------+-------------+-----------------+ <-- min BFGS
 |  previous  |    0.000000 |    0.199014 |    -4126.209592 | <-- min BFGS
 +------------+-------------+-------------+-----------------+ <-- min BFGS
  

--------------------------------------------------------------------------------
 BFGS: starting iteration         3 with trial guess (lambda=  0.785101)
--------------------------------------------------------------------------------
 
+---------------- MEMORY AND SCRATCH DISK ESTIMATES PER NODE -----------------+
|                                                     Memory          Disk    |
| Model and support data                              435.3 MB         0.0 MB |
| Electronic energy minimisation requirements         336.9 MB         0.0 MB |
| Geometry minimisation requirements                  470.7 MB         0.0 MB |
|                                               ----------------------------- |
| Approx. total storage required per node            1242.9 MB         0.0 MB |
|                                                                             |
| Requirements will fluctuate during execution and may exceed these estimates |
+-----------------------------------------------------------------------------+
 

                           -------------------------------
                                      Unit Cell
                           -------------------------------
        Real Lattice(A)              Reciprocal Lattice(1/A)
  12.1814923   0.0035710  -0.0011943        0.5158544  -0.1721646   0.0639943
   1.8534933   5.5544132   0.0021961       -0.0003707   1.1314868  -0.3973743
  -0.0773127   3.9665992  11.2945992        0.0000546  -0.0002382   0.5563840

                       Lattice parameters(A)       Cell Angles
                    a =   12.181493          alpha =   71.782880
                    b =    5.855506          beta  =   90.369768
                    c =   11.971126          gamma =   71.529487

                Current cell volume =  764.014176 A**3

                           -------------------------------
                                     Cell Contents
                           -------------------------------

            xxxxxxxxxxxxxxxxxxxxxxxxxxxxxxxxxxxxxxxxxxxxxxxxxxxxxxxxxxxx
            x  Element    Atom        Fractional coordinates of atoms  x
            x            Number           u          v          w      x
            x----------------------------------------------------------x
            x  As           1         0.674188   0.399421   0.001755   x
            x  As           2         0.325812   0.600579   0.998245   x
            x  As           3         0.528376   0.890599   0.173404   x
            x  As           4         0.471624   0.109401   0.826596   x
            x  As           5         0.188783   0.926837   0.053704   x
            x  As           6         0.811217   0.073163   0.946296   x
            x  As           7         0.554893   0.853639   0.376195   x
            x  As           8         0.445107   0.146361   0.623805   x
            x  As           9         0.022893   0.347863   0.312916   x
            x  As          10         0.977107   0.652137   0.687084   x
            x  As          11         0.874534   0.361935   0.010697   x
            x  As          12         0.125466   0.638065   0.989303   x
            x  As          13         0.675319   0.529443   0.308375   x
            x  As          14         0.324681   0.470557   0.691625   x
            x  As          15         0.474848   0.576901   0.320424   x
            x  As          16         0.525152   0.423099   0.679576   x
            x  As          17         0.135299   0.564242   0.374078   x
            x  As          18         0.864701   0.435758   0.625922   x
            x  As          19         0.814059   0.047877   0.149011   x
            x  As          20         0.185941   0.952123   0.850989   x
            x  As          21         0.142783   0.151911   0.497953   x
            x  As          22         0.857217   0.848089   0.502047   x
            x  As          23         0.229144   0.201455   0.317121   x
            x  As          24         0.770856   0.798545   0.682879   x
            xxxxxxxxxxxxxxxxxxxxxxxxxxxxxxxxxxxxxxxxxxxxxxxxxxxxxxxxxxxx


------------------------------------------------------------------------ <-- SCF
SCF loop      Energy           Fermi           Energy gain       Timer   <-- SCF
                               energy          per atom          (sec)   <-- SCF
------------------------------------------------------------------------ <-- SCF
Initial  -4.12641937E+003  0.00000000E+000                      5046.78  <-- SCF
      1  -4.12992900E+003 -2.21583816E+000   1.46234415E-001    5165.08  <-- SCF
      2  -4.12995611E+003 -2.21597138E+000   1.12962737E-003    5354.59  <-- SCF
      3  -4.12914032E+003 -2.20839863E+000  -3.39910400E-002    5490.27  <-- SCF
      4  -4.12910674E+003 -2.16805699E+000  -1.39935970E-003    5644.68  <-- SCF
      5  -4.12910581E+003 -2.16092891E+000  -3.86632998E-005    5808.50  <-- SCF
      6  -4.12910605E+003 -2.16062112E+000   1.00077376E-005    5911.59  <-- SCF
      7  -4.12910612E+003 -2.16035467E+000   2.85832703E-006    6008.05  <-- SCF
      8  -4.12910613E+003 -2.16037055E+000   4.36602316E-007    6100.79  <-- SCF
------------------------------------------------------------------------ <-- SCF
 
Final energy, E             =  -4129.106131506     eV
Final free energy (E-TS)    =  -4129.106131506     eV
(energies not corrected for finite basis set)
 
NB est. 0K energy (E-0.5TS)      =  -4129.106131506     eV
 

 *********************************** Forces ***********************************
 *                                                                            *
 *                        Cartesian components (eV/A)                         *
 * -------------------------------------------------------------------------- *
 *                   x                    y                    z              *
 *                                                                            *
 * As        1     -0.92472              0.80661             -0.26368         *
 * As        2      0.92472             -0.80661              0.26368         *
 * As        3      0.00292              0.44291             -1.22134         *
 * As        4     -0.00292             -0.44291              1.22134         *
 * As        5      0.06090              1.08642              0.81467         *
 * As        6     -0.06090             -1.08642             -0.81467         *
 * As        7      0.22528              1.05522              0.88142         *
 * As        8     -0.22528             -1.05522             -0.88142         *
 * As        9     -1.12194              0.01110             -0.68395         *
 * As       10      1.12194             -0.01110              0.68395         *
 * As       11      1.20839              0.61201             -0.19560         *
 * As       12     -1.20839             -0.61201              0.19560         *
 * As       13      0.87978             -0.94007             -0.02389         *
 * As       14     -0.87978              0.94007              0.02389         *
 * As       15     -1.16187             -0.62879              0.27861         *
 * As       16      1.16187              0.62879             -0.27861         *
 * As       17      0.46016              1.25847             -0.03538         *
 * As       18     -0.46016             -1.25847              0.03538         *
 * As       19     -0.12245             -0.47442              1.23973         *
 * As       20      0.12245              0.47442             -1.23973         *
 * As       21     -0.17908             -0.39126              1.15044         *
 * As       22      0.17908              0.39126             -1.15044         *
 * As       23      0.87828             -0.86857             -0.50031         *
 * As       24     -0.87828              0.86857              0.50031         *
 *                                                                            *
 ******************************************************************************

 ***************** Stress Tensor *****************
 *                                               *
 *          Cartesian components (GPa)           *
 * --------------------------------------------- *
 *             x             y             z     *
 *                                               *
 *  x     -3.644934     -0.043192      0.027870  *
 *  y     -0.043192     -3.586585     -0.052230  *
 *  z      0.027870     -0.052230     -3.532187  *
 *                                               *
 *  Pressure:    3.5879                          *
 *                                               *
 *************************************************
  
 +------------+-------------+-------------+-----------------+ <-- min BFGS
 |    Step    |   lambda    |   F.delta   |    enthalpy     | <-- min BFGS
 +------------+-------------+-------------+-----------------+ <-- min BFGS
 |  previous  |    0.000000 |    0.199014 |    -4126.209592 | <-- min BFGS
 | trial step |    0.785101 |    0.076775 |    -4129.106132 | <-- min BFGS
 +------------+-------------+-------------+-----------------+ <-- min BFGS
  
 BFGS: finished iteration     3 with enthalpy= -4.12910613E+003 eV
  
 +-----------+-----------------+-----------------+------------+-----+ <-- BFGS
 | Parameter |      value      |    tolerance    |    units   | OK? | <-- BFGS
 +-----------+-----------------+-----------------+------------+-----+ <-- BFGS
 |  dE/ion   |   1.206892E-001 |   2.000000E-005 |         eV | No  | <-- BFGS
 |  |F|max   |   1.393245E+000 |   5.000000E-002 |       eV/A | No  | <-- BFGS
 |  |dR|max  |   1.749575E-002 |   1.000000E-003 |          A | No  | <-- BFGS
 |   Smax    |   3.644934E+000 |   1.000000E-001 |        GPa | No  | <-- BFGS
 +-----------+-----------------+-----------------+------------+-----+ <-- BFGS
  

================================================================================
 Starting BFGS iteration          4 ...
================================================================================
  
 +------------+-------------+-------------+-----------------+ <-- min BFGS
 |    Step    |   lambda    |   F.delta   |    enthalpy     | <-- min BFGS
 +------------+-------------+-------------+-----------------+ <-- min BFGS
 |  previous  |    0.000000 |    0.037885 |    -4129.106132 | <-- min BFGS
 +------------+-------------+-------------+-----------------+ <-- min BFGS
  

--------------------------------------------------------------------------------
 BFGS: starting iteration         4 with trial guess (lambda=  1.000000)
--------------------------------------------------------------------------------
 
+---------------- MEMORY AND SCRATCH DISK ESTIMATES PER NODE -----------------+
|                                                     Memory          Disk    |
| Model and support data                              445.1 MB         0.0 MB |
| Electronic energy minimisation requirements         349.4 MB         0.0 MB |
| Geometry minimisation requirements                  488.6 MB         0.0 MB |
|                                               ----------------------------- |
| Approx. total storage required per node            1283.1 MB         0.0 MB |
|                                                                             |
| Requirements will fluctuate during execution and may exceed these estimates |
+-----------------------------------------------------------------------------+
 

                           -------------------------------
                                      Unit Cell
                           -------------------------------
        Real Lattice(A)              Reciprocal Lattice(1/A)
  12.3483842   0.0047473  -0.0017736        0.5089009  -0.1699052   0.0631925
   1.8794009   5.6302507   0.0028473       -0.0004855   1.1163295  -0.3922586
  -0.0785281   4.0220674  11.4465059        0.0000790  -0.0003040   0.5490247

                       Lattice parameters(A)       Cell Angles
                    a =   12.348385          alpha =   71.768943
                    b =    5.935645          beta  =   90.371303
                    c =   12.132835          gamma =   71.518757

                Current cell volume =  795.554853 A**3

                           -------------------------------
                                     Cell Contents
                           -------------------------------

            xxxxxxxxxxxxxxxxxxxxxxxxxxxxxxxxxxxxxxxxxxxxxxxxxxxxxxxxxxxx
            x  Element    Atom        Fractional coordinates of atoms  x
            x            Number           u          v          w      x
            x----------------------------------------------------------x
            x  As           1         0.673339   0.400719   0.001587   x
            x  As           2         0.326661   0.599281   0.998413   x
            x  As           3         0.528188   0.891847   0.172541   x
            x  As           4         0.471812   0.108153   0.827459   x
            x  As           5         0.188647   0.927945   0.054267   x
            x  As           6         0.811353   0.072055   0.945733   x
            x  As           7         0.554864   0.854680   0.376794   x
            x  As           8         0.445136   0.145320   0.623206   x
            x  As           9         0.022097   0.348163   0.312457   x
            x  As          10         0.977903   0.651837   0.687543   x
            x  As          11         0.875152   0.362976   0.010566   x
            x  As          12         0.124848   0.637024   0.989434   x
            x  As          13         0.676147   0.528109   0.308415   x
            x  As          14         0.323853   0.471891   0.691585   x
            x  As          15         0.474245   0.575900   0.320621   x
            x  As          16         0.525755   0.424100   0.679379   x
            x  As          17         0.135312   0.566063   0.374057   x
            x  As          18         0.864688   0.433937   0.625943   x
            x  As          19         0.814190   0.046592   0.149884   x
            x  As          20         0.185810   0.953408   0.850116   x
            x  As          21         0.142853   0.150747   0.498790   x
            x  As          22         0.857147   0.849253   0.501210   x
            x  As          23         0.229847   0.200581   0.316727   x
            x  As          24         0.770153   0.799419   0.683273   x
            xxxxxxxxxxxxxxxxxxxxxxxxxxxxxxxxxxxxxxxxxxxxxxxxxxxxxxxxxxxx


------------------------------------------------------------------------ <-- SCF
SCF loop      Energy           Fermi           Energy gain       Timer   <-- SCF
                               energy          per atom          (sec)   <-- SCF
------------------------------------------------------------------------ <-- SCF
Initial  -4.12864167E+003  0.00000000E+000                      6615.38  <-- SCF
      1  -4.13005712E+003 -2.23532566E+000   5.89768522E-002    6744.25  <-- SCF
      2  -4.13006836E+003 -2.23538156E+000   4.68323302E-004    6944.13  <-- SCF
      3  -4.12972295E+003 -2.23209006E+000  -1.43918405E-002    7083.23  <-- SCF
      4  -4.12971005E+003 -2.20802086E+000  -5.37641709E-004    7244.54  <-- SCF
      5  -4.12970963E+003 -2.20343399E+000  -1.74289785E-005    7396.80  <-- SCF
      6  -4.12970974E+003 -2.20335488E+000   4.42263257E-006    7497.06  <-- SCF
      7  -4.12970977E+003 -2.20313677E+000   1.28291616E-006    7595.84  <-- SCF
------------------------------------------------------------------------ <-- SCF
 
Final energy, E             =  -4129.709766233     eV
Final free energy (E-TS)    =  -4129.709766233     eV
(energies not corrected for finite basis set)
 
NB est. 0K energy (E-0.5TS)      =  -4129.709766233     eV
 

 *********************************** Forces ***********************************
 *                                                                            *
 *                        Cartesian components (eV/A)                         *
 * -------------------------------------------------------------------------- *
 *                   x                    y                    z              *
 *                                                                            *
 * As        1     -0.09148              0.10505             -0.04312         *
 * As        2      0.09148             -0.10505              0.04312         *
 * As        3      0.03617              0.01205             -0.20669         *
 * As        4     -0.03617             -0.01205              0.20669         *
 * As        5      0.01409              0.18876              0.15972         *
 * As        6     -0.01409             -0.18876             -0.15972         *
 * As        7      0.06457              0.25661              0.18604         *
 * As        8     -0.06457             -0.25661             -0.18604         *
 * As        9     -0.20707              0.05336             -0.19884         *
 * As       10      0.20707             -0.05336              0.19884         *
 * As       11      0.21248              0.10887             -0.10417         *
 * As       12     -0.21248             -0.10887              0.10417         *
 * As       13      0.16011             -0.14604             -0.12378         *
 * As       14     -0.16011              0.14604              0.12378         *
 * As       15     -0.14227             -0.06539              0.06872         *
 * As       16      0.14227              0.06539             -0.06872         *
 * As       17      0.04559              0.21298              0.00963         *
 * As       18     -0.04559             -0.21298             -0.00963         *
 * As       19     -0.05307             -0.13609              0.23791         *
 * As       20      0.05307              0.13609             -0.23791         *
 * As       21     -0.01708             -0.02054              0.17724         *
 * As       22      0.01708              0.02054             -0.17724         *
 * As       23      0.17300             -0.20426             -0.00675         *
 * As       24     -0.17300              0.20426              0.00675         *
 *                                                                            *
 ******************************************************************************

 ***************** Stress Tensor *****************
 *                                               *
 *          Cartesian components (GPa)           *
 * --------------------------------------------- *
 *             x             y             z     *
 *                                               *
 *  x     -0.757798     -0.024238      0.051526  *
 *  y     -0.024238     -0.665384     -0.051932  *
 *  z      0.051526     -0.051932     -0.678796  *
 *                                               *
 *  Pressure:    0.7007                          *
 *                                               *
 *************************************************
  
 +------------+-------------+-------------+-----------------+ <-- min BFGS
 |    Step    |   lambda    |   F.delta   |    enthalpy     | <-- min BFGS
 +------------+-------------+-------------+-----------------+ <-- min BFGS
 |  previous  |    0.000000 |    0.037885 |    -4129.106132 | <-- min BFGS
 | trial step |    1.000000 |    0.007285 |    -4129.709768 | <-- min BFGS
 +------------+-------------+-------------+-----------------+ <-- min BFGS
  
 BFGS: finished iteration     4 with enthalpy= -4.12970977E+003 eV
  
 +-----------+-----------------+-----------------+------------+-----+ <-- BFGS
 | Parameter |      value      |    tolerance    |    units   | OK? | <-- BFGS
 +-----------+-----------------+-----------------+------------+-----+ <-- BFGS
 |  dE/ion   |   2.515147E-002 |   2.000000E-005 |         eV | No  | <-- BFGS
 |  |F|max   |   3.234611E-001 |   5.000000E-002 |       eV/A | No  | <-- BFGS
 |  |dR|max  |   1.108717E-002 |   1.000000E-003 |          A | No  | <-- BFGS
 |   Smax    |   7.577982E-001 |   1.000000E-001 |        GPa | No  | <-- BFGS
 +-----------+-----------------+-----------------+------------+-----+ <-- BFGS
  

================================================================================
 Starting BFGS iteration          5 ...
================================================================================
  
 +------------+-------------+-------------+-----------------+ <-- min BFGS
 |    Step    |   lambda    |   F.delta   |    enthalpy     | <-- min BFGS
 +------------+-------------+-------------+-----------------+ <-- min BFGS
 |  previous  |    0.000000 |    0.001750 |    -4129.709768 | <-- min BFGS
 +------------+-------------+-------------+-----------------+ <-- min BFGS
  

--------------------------------------------------------------------------------
 BFGS: starting iteration         5 with trial guess (lambda=  1.000000)
--------------------------------------------------------------------------------
 
+---------------- MEMORY AND SCRATCH DISK ESTIMATES PER NODE -----------------+
|                                                     Memory          Disk    |
| Model and support data                              447.4 MB         0.0 MB |
| Electronic energy minimisation requirements         352.5 MB         0.0 MB |
| Geometry minimisation requirements                  492.9 MB         0.0 MB |
|                                               ----------------------------- |
| Approx. total storage required per node            1292.7 MB         0.0 MB |
|                                                                             |
| Requirements will fluctuate during execution and may exceed these estimates |
+-----------------------------------------------------------------------------+
 

                           -------------------------------
                                      Unit Cell
                           -------------------------------
        Real Lattice(A)              Reciprocal Lattice(1/A)
  12.3889907   0.0052044  -0.0024198        0.5072422  -0.1693859   0.0630305
   1.8857823   5.6483233   0.0031359       -0.0005439   1.1127970  -0.3910941
  -0.0792377   4.0356949  11.4830470        0.0001070  -0.0003396   0.5472906

                       Lattice parameters(A)       Cell Angles
                    a =   12.388992          alpha =   71.764073
                    b =    5.954808          beta  =   90.375571
                    c =   12.171831          gamma =   71.513535

                Current cell volume =  803.260477 A**3

                           -------------------------------
                                     Cell Contents
                           -------------------------------

            xxxxxxxxxxxxxxxxxxxxxxxxxxxxxxxxxxxxxxxxxxxxxxxxxxxxxxxxxxxx
            x  Element    Atom        Fractional coordinates of atoms  x
            x            Number           u          v          w      x
            x----------------------------------------------------------x
            x  As           1         0.673153   0.401012   0.001549   x
            x  As           2         0.326847   0.598988   0.998451   x
            x  As           3         0.528153   0.892117   0.172339   x
            x  As           4         0.471847   0.107883   0.827661   x
            x  As           5         0.188616   0.928203   0.054402   x
            x  As           6         0.811384   0.071797   0.945598   x
            x  As           7         0.554858   0.854945   0.376940   x
            x  As           8         0.445142   0.145055   0.623060   x
            x  As           9         0.021904   0.348260   0.312336   x
            x  As          10         0.978096   0.651740   0.687664   x
            x  As          11         0.875296   0.363229   0.010524   x
            x  As          12         0.124704   0.636771   0.989476   x
            x  As          13         0.676340   0.527815   0.308405   x
            x  As          14         0.323660   0.472185   0.691595   x
            x  As          15         0.474110   0.575678   0.320670   x
            x  As          16         0.525890   0.424322   0.679330   x
            x  As          17         0.135311   0.566487   0.374055   x
            x  As          18         0.864689   0.433513   0.625945   x
            x  As          19         0.814220   0.046270   0.150092   x
            x  As          20         0.185780   0.953730   0.849908   x
            x  As          21         0.142869   0.150492   0.498982   x
            x  As          22         0.857131   0.849508   0.501018   x
            x  As          23         0.230020   0.200349   0.316648   x
            x  As          24         0.769980   0.799651   0.683352   x
            xxxxxxxxxxxxxxxxxxxxxxxxxxxxxxxxxxxxxxxxxxxxxxxxxxxxxxxxxxxx


------------------------------------------------------------------------ <-- SCF
SCF loop      Energy           Fermi           Energy gain       Timer   <-- SCF
                               energy          per atom          (sec)   <-- SCF
------------------------------------------------------------------------ <-- SCF
Initial  -4.12967357E+003  0.00000000E+000                      8122.61  <-- SCF
      1  -4.12975501E+003 -2.22211243E+000   3.39346504E-003    8253.29  <-- SCF
      2  -4.12975567E+003 -2.22211535E+000   2.71659038E-005    8435.32  <-- SCF
      3  -4.12973590E+003 -2.22091007E+000  -8.23768058E-004    8575.71  <-- SCF
[...]
  

--------------------------------------------------------------------------------
 BFGS: starting iteration         2 with trial guess (lambda=  1.000000)
--------------------------------------------------------------------------------

                           -------------------------------
                                      Unit Cell
                           -------------------------------
        Real Lattice(A)              Reciprocal Lattice(1/A)
  12.4821041   0.0074605  -0.0081994        0.5035232  -0.1768576   0.0638820
   1.9957472   5.6826573   0.0018205       -0.0009195   1.1061262  -0.3932594
  -0.0228399   4.0708729  11.4502549        0.0003607  -0.0003025   0.5488459

                       Lattice parameters(A)       Cell Angles
                    a =   12.482109          alpha =   71.595591
                    b =    6.022923          beta  =   90.131676
                    c =   12.152402          gamma =   70.614516

                Current cell volume =  811.853321 A**3

                           -------------------------------
                                     Cell Contents
                           -------------------------------

            xxxxxxxxxxxxxxxxxxxxxxxxxxxxxxxxxxxxxxxxxxxxxxxxxxxxxxxxxxxx
            x  Element    Atom        Fractional coordinates of atoms  x
            x            Number           u          v          w      x
            x----------------------------------------------------------x
            x  As           1         0.674574   0.399379   0.001632   x
            x  As           2         0.325426   0.600621   0.998368   x
            x  As           3         0.527493   0.893471   0.172773   x
            x  As           4         0.472508   0.106529   0.827227   x
            x  As           5         0.187626   0.924857   0.056816   x
            x  As           6         0.812374   0.075143   0.943184   x
            x  As           7         0.555102   0.853602   0.378127   x
            x  As           8         0.444898   0.146398   0.621873   x
            x  As           9         0.021833   0.353663   0.311506   x
            x  As          10         0.978167   0.646337   0.688494   x
            x  As          11         0.876260   0.358142   0.009115   x
            x  As          12         0.123739   0.641858   0.990885   x
            x  As          13         0.676957   0.530202   0.307195   x
            x  As          14         0.323043   0.469798   0.692805   x
            x  As          15         0.475629   0.578941   0.321513   x
            x  As          16         0.524371   0.421059   0.678487   x
            x  As          17         0.134993   0.562251   0.375353   x
            x  As          18         0.865007   0.437749   0.624647   x
            x  As          19         0.816019   0.044151   0.149034   x
            x  As          20         0.183981   0.955850   0.850966   x
            x  As          21         0.141571   0.150678   0.500074   x
            x  As          22         0.858429   0.849322   0.499926   x
            x  As          23         0.229955   0.195622   0.318323   x
            x  As          24         0.770045   0.804378   0.681677   x
            xxxxxxxxxxxxxxxxxxxxxxxxxxxxxxxxxxxxxxxxxxxxxxxxxxxxxxxxxxxx


------------------------------------------------------------------------ <-- SCF
SCF loop      Energy           Fermi           Energy gain       Timer   <-- SCF
                               energy          per atom          (sec)   <-- SCF
------------------------------------------------------------------------ <-- SCF
Initial  -4.12978475E+003  0.00000000E+000                      5717.70  <-- SCF
      1  -4.12978512E+003 -2.23538364E+000   1.53901079E-005    5891.69  <-- SCF
      2  -4.12978512E+003 -2.23538364E+000   2.06917587E-007    6022.36  <-- SCF
      3  -4.12978498E+003 -2.23506417E+000  -6.09646364E-006    6162.71  <-- SCF
      4  -4.12978498E+003 -2.23508348E+000  -3.39191303E-008    6293.49  <-- SCF
------------------------------------------------------------------------ <-- SCF
 
Final energy, E             =  -4129.784975612     eV
Final free energy (E-TS)    =  -4129.784975612     eV
(energies not corrected for finite basis set)
 
NB est. 0K energy (E-0.5TS)      =  -4129.784975612     eV
 

 *********************************** Forces ***********************************
 *                                                                            *
 *                        Cartesian components (eV/A)                         *
 * -------------------------------------------------------------------------- *
 *                   x                    y                    z              *
 *                                                                            *
 * As        1     -0.02236              0.03467             -0.02107         *
 * As        2      0.02234             -0.03465              0.02106         *
 * As        3      0.00030              0.00790             -0.02275         *
 * As        4     -0.00030             -0.00790              0.02274         *
 * As        5      0.01732              0.02372             -0.00780         *
 * As        6     -0.01732             -0.02374              0.00778         *
 * As        7      0.00147              0.00584             -0.00413         *
 * As        8     -0.00147             -0.00583              0.00414         *
 * As        9     -0.01206              0.01238             -0.00631         *
 * As       10      0.01205             -0.01237              0.00631         *
 * As       11     -0.01560             -0.04358             -0.01070         *
 * As       12      0.01562              0.04357              0.01069         *
 * As       13      0.02692             -0.02308              0.02369         *
 * As       14     -0.02691              0.02308             -0.02369         *
 * As       15      0.01752              0.00682             -0.01247         *
 * As       16     -0.01753             -0.00682              0.01247         *
 * As       17     -0.00558              0.00554             -0.02040         *
 * As       18      0.00558             -0.00554              0.02040         *
 * As       19     -0.00445             -0.01985              0.02000         *
 * As       20      0.00445              0.01984             -0.01997         *
 * As       21      0.00905             -0.00102              0.00705         *
 * As       22     -0.00905              0.00102             -0.00705         *
 * As       23     -0.00067             -0.00064              0.01624         *
 * As       24      0.00068              0.00065             -0.01624         *
 *                                                                            *
 ******************************************************************************

 ***************** Stress Tensor *****************
 *                                               *
 *          Cartesian components (GPa)           *
 * --------------------------------------------- *
 *             x             y             z     *
 *                                               *
 *  x     -0.012372      0.014774     -0.009158  *
 *  y      0.014774     -0.043460      0.015650  *
 *  z     -0.009158      0.015650     -0.047539  *
 *                                               *
 *  Pressure:    0.0345                          *
 *                                               *
 *************************************************
  
 +------------+-------------+-------------+-----------------+ <-- min BFGS
 |    Step    |   lambda    |   F.delta   |    enthalpy     | <-- min BFGS
 +------------+-------------+-------------+-----------------+ <-- min BFGS
 |  previous  |    0.000000 |  3.220E-006 |    -4129.784920 | <-- min BFGS
 | trial step |    1.000000 |  1.052E-006 |    -4129.784977 | <-- min BFGS
 +------------+-------------+-------------+-----------------+ <-- min BFGS
  
 BFGS: finished iteration     2 with enthalpy= -4.12978498E+003 eV
  
 +-----------+-----------------+-----------------+------------+-----+ <-- BFGS
 | Parameter |      value      |    tolerance    |    units   | OK? | <-- BFGS
 +-----------+-----------------+-----------------+------------+-----+ <-- BFGS
 |  dE/ion   |   2.339728E-006 |   2.000000E-005 |         eV | Yes | <-- BFGS
 |  |F|max   |   4.750796E-002 |   5.000000E-002 |       eV/A | Yes | <-- BFGS
 |  |dR|max  |   4.101923E-004 |   1.000000E-003 |          A | Yes | <-- BFGS
 |   Smax    |   4.753945E-002 |   1.000000E-001 |        GPa | Yes | <-- BFGS
 +-----------+-----------------+-----------------+------------+-----+ <-- BFGS
  
 BFGS : Geometry optimization completed successfully.

================================================================================
 BFGS : Final Configuration:
================================================================================

                           -------------------------------
                                      Unit Cell
                           -------------------------------
        Real Lattice(A)              Reciprocal Lattice(1/A)
  12.4821041   0.0074605  -0.0081994        0.5035232  -0.1768576   0.0638820
   1.9957472   5.6826573   0.0018205       -0.0009195   1.1061262  -0.3932594
  -0.0228399   4.0708729  11.4502549        0.0003607  -0.0003025   0.5488459

                       Lattice parameters(A)       Cell Angles
                    a =   12.482109          alpha =   71.595591
                    b =    6.022923          beta  =   90.131676
                    c =   12.152402          gamma =   70.614516

                Current cell volume =  811.853321 A**3

                           -------------------------------
                                     Cell Contents
                           -------------------------------

            xxxxxxxxxxxxxxxxxxxxxxxxxxxxxxxxxxxxxxxxxxxxxxxxxxxxxxxxxxxx
            x  Element    Atom        Fractional coordinates of atoms  x
            x            Number           u          v          w      x
            x----------------------------------------------------------x
            x  As           1         0.674574   0.399379   0.001632   x
            x  As           2         0.325426   0.600621   0.998368   x
            x  As           3         0.527493   0.893471   0.172773   x
            x  As           4         0.472508   0.106529   0.827227   x
            x  As           5         0.187626   0.924857   0.056816   x
            x  As           6         0.812374   0.075143   0.943184   x
            x  As           7         0.555102   0.853602   0.378127   x
            x  As           8         0.444898   0.146398   0.621873   x
            x  As           9         0.021833   0.353663   0.311506   x
            x  As          10         0.978167   0.646337   0.688494   x
            x  As          11         0.876260   0.358142   0.009115   x
            x  As          12         0.123739   0.641858   0.990885   x
            x  As          13         0.676957   0.530202   0.307195   x
            x  As          14         0.323043   0.469798   0.692805   x
            x  As          15         0.475629   0.578941   0.321513   x
            x  As          16         0.524371   0.421059   0.678487   x
            x  As          17         0.134993   0.562251   0.375353   x
            x  As          18         0.865007   0.437749   0.624647   x
            x  As          19         0.816019   0.044151   0.149034   x
            x  As          20         0.183981   0.955850   0.850966   x
            x  As          21         0.141571   0.150678   0.500074   x
            x  As          22         0.858429   0.849322   0.499926   x
            x  As          23         0.229955   0.195622   0.318323   x
            x  As          24         0.770045   0.804378   0.681677   x
            xxxxxxxxxxxxxxxxxxxxxxxxxxxxxxxxxxxxxxxxxxxxxxxxxxxxxxxxxxxx


 BFGS : Final Enthalpy     = -4.12978498E+003 eV
 BFGS : Final <frequency>  =    1137.76516 cm-1
 BFGS : Final bulk modulus =     471.21963 GPa

 *********************************** Forces ***********************************
 *                                                                            *
 *                        Cartesian components (eV/A)                         *
 * -------------------------------------------------------------------------- *
 *                   x                    y                    z              *
 *                                                                            *
 * As        1     -0.02236              0.03467             -0.02107         *
 * As        2      0.02234             -0.03465              0.02106         *
 * As        3      0.00030              0.00790             -0.02275         *
 * As        4     -0.00030             -0.00790              0.02274         *
 * As        5      0.01732              0.02372             -0.00780         *
 * As        6     -0.01732             -0.02374              0.00778         *
 * As        7      0.00147              0.00584             -0.00413         *
 * As        8     -0.00147             -0.00583              0.00414         *
 * As        9     -0.01206              0.01238             -0.00631         *
 * As       10      0.01205             -0.01237              0.00631         *
 * As       11     -0.01560             -0.04358             -0.01070         *
 * As       12      0.01562              0.04357              0.01069         *
 * As       13      0.02692             -0.02308              0.02369         *
 * As       14     -0.02691              0.02308             -0.02369         *
 * As       15      0.01752              0.00682             -0.01247         *
 * As       16     -0.01753             -0.00682              0.01247         *
 * As       17     -0.00558              0.00554             -0.02040         *
 * As       18      0.00558             -0.00554              0.02040         *
 * As       19     -0.00445             -0.01985              0.02000         *
 * As       20      0.00445              0.01984             -0.01997         *
 * As       21      0.00905             -0.00102              0.00705         *
 * As       22     -0.00905              0.00102             -0.00705         *
 * As       23     -0.00067             -0.00064              0.01624         *
 * As       24      0.00068              0.00065             -0.01624         *
 *                                                                            *
 ******************************************************************************

 ***************** Stress Tensor *****************
 *                                               *
 *          Cartesian components (GPa)           *
 * --------------------------------------------- *
 *             x             y             z     *
 *                                               *
 *  x     -0.012372      0.014774     -0.009158  *
 *  y      0.014774     -0.043460      0.015650  *
 *  z     -0.009158      0.015650     -0.047539  *
 *                                               *
 *  Pressure:    0.0345                          *
 *                                               *
 *************************************************

 Pseudo atomic calculation performed for As 4s2 4p3

 Converged in 15 iterations to a total energy of -167.4554 eV

Charge spilling parameter for spin component 1 = 0.79%

     Atomic Populations (Mulliken)
     -----------------------------
Species   Ion     s      p      d      f     Total  Charge (e)
==============================================================
  As       1     1.88   3.11   0.00   0.00   4.99     0.01
  As       2     1.88   3.11   0.00   0.00   4.99     0.01
  As       3     1.84   3.11   0.00   0.00   4.95     0.05
  As       4     1.84   3.11   0.00   0.00   4.95     0.05
  As       5     1.97   3.10   0.00   0.00   5.07    -0.07
  As       6     1.97   3.10   0.00   0.00   5.07    -0.07
  As       7     1.90   3.11   0.00   0.00   5.02    -0.02
  As       8     1.90   3.11   0.00   0.00   5.02    -0.02
  As       9     1.82   3.11   0.00   0.00   4.93     0.07
  As      10     1.82   3.11   0.00   0.00   4.93     0.07
  As      11     1.89   3.11   0.00   0.00   5.00    -0.00
  As      12     1.89   3.11   0.00   0.00   5.00    -0.00
  As      13     1.95   3.10   0.00   0.00   5.05    -0.05
  As      14     1.95   3.10   0.00   0.00   5.05    -0.05
  As      15     1.90   3.10   0.00   0.00   5.00     0.00
  As      16     1.90   3.10   0.00   0.00   5.00     0.00
  As      17     1.99   3.10   0.00   0.00   5.09    -0.09
  As      18     1.99   3.10   0.00   0.00   5.09    -0.09
  As      19     1.86   3.11   0.00   0.00   4.97     0.03
  As      20     1.86   3.11   0.00   0.00   4.97     0.03
  As      21     1.88   3.11   0.00   0.00   4.99     0.01
  As      22     1.88   3.11   0.00   0.00   4.99     0.01
  As      23     1.84   3.10   0.00   0.00   4.94     0.06
  As      24     1.84   3.10   0.00   0.00   4.94     0.06
==============================================================

            Bond              Population      Length (A)
============================================================
        As 1  -- As 6             -1.35        2.43480
        As 2  -- As 5             -1.35        2.43481
        As 3  -- As 15            -1.12        2.43564
        As 4  -- As 16            -1.12        2.43564
        As 17 -- As 21            -2.46        2.43735
        As 18 -- As 22            -2.46        2.43735
        As 5  -- As 12            -2.26        2.43821
        As 6  -- As 11            -2.26        2.43821
        As 7  -- As 13            -1.45        2.43925
        As 8  -- As 14            -1.45        2.43926
        As 11 -- As 19            -1.53        2.43976
        As 12 -- As 20            -1.53        2.43976
        As 3  -- As 13            -1.17        2.44040
        As 4  -- As 14            -1.17        2.44040
        As 1  -- As 19            -1.42        2.44156
        As 2  -- As 20            -1.42        2.44156
        As 9  -- As 17            -2.74        2.44210
        As 10 -- As 18            -2.74        2.44210
        As 3  -- As 7             -0.39        2.44272
        As 4  -- As 8             -0.39        2.44272
        As 9  -- As 23            -0.12        2.44319
        As 10 -- As 24            -0.12        2.44319
        As 13 -- As 15            -1.09        2.44462
        As 14 -- As 16            -1.09        2.44462
        As 1  -- As 11            -0.82        2.44483
        As 2  -- As 12            -0.82        2.44483
        As 9  -- As 21            -0.60        2.44579
        As 10 -- As 22            -0.60        2.44579
        As 6  -- As 19            -1.05        2.44821
        As 5  -- As 20            -1.05        2.44822
        As 17 -- As 23            -1.96        2.44826
        As 18 -- As 24            -1.96        2.44826
        As 7  -- As 15            -2.22        2.44926
        As 8  -- As 16            -2.22        2.44926
        As 21 -- As 23            -1.12        2.44963
        As 22 -- As 24            -1.12        2.44963
============================================================


Writing model to As-68326.check

Writing analysis data to As-68326.castep_bin
Initialisation time =      8.58 s
Calculation time    =   6670.78 s
Finalisation time   =    150.05 s
Total time          =   6829.41 s
Peak Memory Use     = 4491532 kB
  
Overall parallel efficiency rating: Satisfactory (63%)                          
  
Data was distributed by:-
G-vector (2-way); efficiency rating: Satisfactory (64%)                         
k-point (25-way); efficiency rating: Excellent (98%)                            
