 +-------------------------------------------------+
 |                                                 |
 |      CCC   AA    SSS  TTTTT  EEEEE  PPPP        |
 |     C     A  A  S       T    E      P   P       |
 |     C     AAAA   SS     T    EEE    PPPP        |
 |     C     A  A     S    T    E      P           |
 |      CCC  A  A  SSS     T    EEEEE  P           |
 |                                                 |
 +-------------------------------------------------+
 |                                                 |
 | Welcome to Academic Release CASTEP version 6.1  |
 | Ab Initio Total Energy Program                  |
 |                                                 |
 | Authors:                                        |
 | M. Segall, M. Probert, C. Pickard, P. Hasnip,   |
 | S. Clark, K. Refson, J. R. Yates, M. Payne      |
 |                                                 |
 | Contributors:                                   |
 | P. Lindan, P. Haynes, J. White, V. Milman,      |
 | N. Govind, M. Gibson, P. Tulip, V. Cocula,      |
 | B. Montanari, D. Quigley, M. Glover,            |
 | L. Bernasconi, A. Perlov, M. Plummer,           |
 | E. McNellis, J. Meyer, J. Gale, D. Jochym       |
 | J. Aarons, B. Walker, R. Gillen                 |
 |                                                 |
 | Copyright (c) 2000 - 2012                       |
 |                                                 |
 |     Distributed under the terms of an           |
 |     Agreement between the United Kingdom        |
 |     Car-Parrinello (UKCP) Consortium,           |
 |     Daresbury Laboratory and Accelrys, Inc.     |
 |                                                 |
 | Please cite                                     |
 |                                                 |
 |     "First principles methods using CASTEP"     |
 |                                                 |
 |         Zeitschrift fuer Kristallographie       |
 |           220(5-6) pp. 567-570 (2005)           |
 |                                                 |
 | S. J. Clark, M. D. Segall, C. J. Pickard,       |
 | P. J. Hasnip, M. J. Probert, K. Refson,         |
 | M. C. Payne                                     |
 |                                                 |
 |       in all publications arising from          |
 |              your use of CASTEP                 |
 |                                                 |
 +-------------------------------------------------+
 
 
 Compiled for linux_x86_64_ifort12 on Tue Oct  2 13:39:45 2012
 from source code version 66eceff98deb+  2012-10-01
 using fast optimisation, mkl FFTs and mkl10 LAPACK and BLAS.
 
 
 Pseudo atomic calculation performed for Si 3s2 3p2
 
 Converged in 15 iterations to a total energy of -101.9008 eV
 
 
 Pseudo atomic calculation performed for Fe 3d6 4s2
 
 Converged in 32 iterations to a total energy of -855.8188 eV
 
 Calculation parallelised over 8 processes.
 Data is distributed by k-point(8-way)

 ************************************ Title ************************************
 

 ***************************** General Parameters ******************************
  
 output verbosity                               : normal  (1)
 write checkpoint data to                       : /dev/shm/check
 type of calculation                            : geometry optimization
 stress calculation                             : off
 density difference calculation                 : off
 electron localisation func (ELF) calculation   : off
 Hirshfeld analysis                             : off
 unlimited duration calculation
 timing information                             : on
 memory usage estimate                          : on
 write final potential to formatted file        : off
 write final density to formatted file          : off
 write BibTeX reference list                    : off
  
 output         length unit                     : A
 output           mass unit                     : amu
 output           time unit                     : ps
 output         charge unit                     : e
 output         energy unit                     : eV
 output          force unit                     : eV/A
 output       velocity unit                     : A/ps
 output       pressure unit                     : GPa
 output     inv_length unit                     : 1/A
 output      frequency unit                     : cm-1
 output force constant unit                     : eV/A**2
 output         volume unit                     : A**3
 output   IR intensity unit                     : (D/A)**2/amu
 output         dipole unit                     : D
 output         efield unit                     : eV/A/e
 output        entropy unit                     : J/mol/K
  
 wavefunctions paging                           : none
 data distribution                              : optimal for this architecture
 optimization strategy                          : maximize speed(+++)

 *********************** Exchange-Correlation Parameters ***********************
  
 using functional                               : Perdew Burke Ernzerhof
 Divergence correction                          : off
 DFT+D: Semi-empirical dispersion correction    : off

 ************************* Pseudopotential Parameters **************************
  
 pseudopotential representation                 : reciprocal space
 <beta|phi> representation                      : reciprocal space

 **************************** Basis Set Parameters *****************************
  
 plane wave basis set cut-off                   :   300.0000   eV
 finite basis set correction                    : automatic
 number of sample energies                      :          3
           sample  spacing                      :     5.0000   eV

 **************************** Electronic Parameters ****************************
  
 number of  electrons                           :  24.00    
 net charge of system                           :  0.000    
 net spin   of system                           :  4.000    
 number of  up  spins                           :  14.00    
 number of down spins                           :  10.00    
 treating system as spin-polarized
 number of bands                                :         42

 ********************* Electronic Minimization Parameters **********************
  
 Method: Treating system as metallic with density mixing treatment of electrons,
         and number of  SD  steps               :          1
         and number of  CG  steps               :          4
  
 total energy / atom convergence tol.           : 0.1000E-04   eV
 eigen-energy convergence tolerance             : 0.9524E-06   eV
 max force / atom convergence tol.              : ignored
 convergence tolerance window                   :          3   cycles
 max. number of SCF cycles                      :      10000
 number of fixed-spin iterations                :         10
 smearing scheme                                : Gaussian
 smearing width                                 : 0.2000       eV
 Fermi energy convergence tolerance             : 0.9524E-07   eV
 periodic dipole correction                     : NONE

 ************************** Density Mixing Parameters **************************
  
 density-mixing scheme                          : Pulay
 max. length of mixing history                  :          5
 charge density mixing amplitude                : 0.8000    
   spin density mixing amplitude                :  2.000    
 cut-off energy for mixing                      :  300.0       eV

 *********************** Population Analysis Parameters ************************
  
 Population analysis with cutoff                :  3.000       A

 ********************** Geometry Optimization Parameters ***********************
  
 optimization method                            : LBFGS
 max. no. of LBFGS updates                      : unbounded
 variable cell method                           : fixed basis quality
 max. number of steps                           :          2
 estimated bulk modulus                         :  500.0       GPa
 estimated <frequency>                          :  1668.       cm-1
 geom line minimiser                            : on
 with line minimiser tolerance                  :     0.4000
  with spin fully able to relax for all steps
 total energy convergence tolerance             : 0.2000E-04   eV/atom
        max ionic |force| tolerance             : 0.5000E-01   eV/A
 max ionic |displacement| tolerance             : 0.1000E-02   A
   max |stress component| tolerance             : 0.1000       GPa
 convergence tolerance window                   :          2   steps
 backup results every                           : 2147483647   steps

 *******************************************************************************
  
 
                           -------------------------------
                                      Unit Cell
                           -------------------------------
        Real Lattice(A)                      Reciprocal Lattice(1/A)
   4.1491500   0.0000000   0.0000000        1.5143307   0.4032436  -0.0788855
  -1.0363598   3.8919194   0.0000000        0.0000000   1.6144181   1.0115239
   0.5167387  -1.4788207   2.3602358        0.0000000   0.0000000   2.6621007
 
                       Lattice parameters(A)       Cell Angles
                    a =    4.149150          alpha =  123.463000
                    b =    4.027540          beta  =   79.489600
                    c =    2.832780          gamma =  104.911000
 
                       Current cell volume =   38.113459       A**3
 
                           -------------------------------
                                     Cell Contents
                           -------------------------------
                         Total number of ions in cell =    4
                      Total number of species in cell =    2
                        Max number of any one species =    2
 
            xxxxxxxxxxxxxxxxxxxxxxxxxxxxxxxxxxxxxxxxxxxxxxxxxxxxxxxxxxxx
            x  Element    Atom        Fractional coordinates of atoms  x
            x            Number           u          v          w      x
            x----------------------------------------------------------x
            x  Si           1         0.185608   0.665625   0.740533   x
            x  Si           2         0.854243   0.136812   0.086744   x
            x  Fe           1         0.299764   0.181955   0.537546   x
            x  Fe           2         0.719217   0.646594   0.342423   x
            xxxxxxxxxxxxxxxxxxxxxxxxxxxxxxxxxxxxxxxxxxxxxxxxxxxxxxxxxxxx
 
 
                         No user defined ionic velocities
 
                           -------------------------------
                                   Details of Species
                           -------------------------------
 
                               Mass of species in AMU
                                    Si   28.0855000
                                    Fe   55.8450000
 
                          Electric Quadrupole Moment (Barn)
                                    Si    1.0000000 No Isotope Defined
                                    Fe    0.1600000 Isotope 57
 
                          Files used for pseudopotentials:
                                    Si ~/pspot/Si_00PBE.usp
                                    Fe ~/pspot/Fe_00PBE.uspcc
 
                           -------------------------------
                              k-Points For BZ Sampling
                           -------------------------------
                       MP grid size for SCF calculation is  5  7  9
                         Number of kpoints used =         158
 
             +++++++++++++++++++++++++++++++++++++++++++++++++++++++
             +  Number       Fractional coordinates        Weight  +
             +-----------------------------------------------------+
             +     1  -0.400000  -0.428571  -0.111111   0.0063492  +
             +     2  -0.400000  -0.428571   0.333333   0.0063492  +
             +     3  -0.400000  -0.285714  -0.333333   0.0063492  +
             +     4  -0.400000  -0.285714  -0.222222   0.0063492  +
             +     5  -0.400000  -0.285714   0.222222   0.0063492  +
             +     6  -0.400000  -0.285714   0.444444   0.0063492  +
             +     7  -0.400000  -0.142857  -0.333333   0.0063492  +
             +     8  -0.400000   0.000000  -0.444444   0.0063492  +
             +     9  -0.400000   0.000000   0.000000   0.0063492  +
             +    10  -0.400000   0.000000   0.111111   0.0063492  +
             +    11  -0.400000   0.000000   0.333333   0.0063492  +
             +    12  -0.400000   0.000000   0.444444   0.0063492  +
             +    13  -0.400000   0.142857  -0.333333   0.0063492  +
             +    14  -0.400000   0.142857   0.333333   0.0063492  +
             +    15  -0.400000   0.142857   0.444444   0.0063492  +
             +    16  -0.400000   0.285714  -0.444444   0.0063492  +
             +    17  -0.400000   0.428571   0.111111   0.0063492  +
             +    18  -0.400000   0.428571   0.444444   0.0063492  +
             +    19  -0.200000  -0.428571  -0.444444   0.0063492  +
             +    20  -0.200000  -0.428571  -0.333333   0.0063492  +
             +    21  -0.200000  -0.428571  -0.222222   0.0063492  +
             +    22  -0.200000  -0.428571   0.000000   0.0063492  +
             +    23  -0.200000  -0.428571   0.111111   0.0063492  +
             +    24  -0.200000  -0.428571   0.222222   0.0063492  +
             +    25  -0.200000  -0.428571   0.333333   0.0063492  +
             +    26  -0.200000  -0.285714  -0.444444   0.0063492  +
             +    27  -0.200000  -0.285714  -0.111111   0.0063492  +
             +    28  -0.200000  -0.285714   0.000000   0.0063492  +
             +    29  -0.200000  -0.285714   0.111111   0.0063492  +
             +    30  -0.200000  -0.285714   0.222222   0.0063492  +
             +    31  -0.200000  -0.285714   0.333333   0.0063492  +
             +    32  -0.200000  -0.285714   0.444444   0.0063492  +
             +    33  -0.200000  -0.142857  -0.444444   0.0063492  +
             +    34  -0.200000  -0.142857  -0.222222   0.0063492  +
             +    35  -0.200000  -0.142857  -0.111111   0.0063492  +
             +    36  -0.200000  -0.142857   0.000000   0.0063492  +
             +    37  -0.200000  -0.142857   0.111111   0.0063492  +
             +    38  -0.200000  -0.142857   0.222222   0.0063492  +
             +    39  -0.200000  -0.142857   0.333333   0.0063492  +
             +    40  -0.200000   0.000000  -0.444444   0.0063492  +
             +    41  -0.200000   0.000000  -0.333333   0.0063492  +
             +    42  -0.200000   0.000000  -0.222222   0.0063492  +
             +    43  -0.200000   0.000000  -0.111111   0.0063492  +
             +    44  -0.200000   0.000000   0.000000   0.0063492  +
             +    45  -0.200000   0.000000   0.111111   0.0063492  +
             +    46  -0.200000   0.000000   0.222222   0.0063492  +
             +    47  -0.200000   0.000000   0.333333   0.0063492  +
             +    48  -0.200000   0.000000   0.444444   0.0063492  +
             +    49  -0.200000   0.142857  -0.444444   0.0063492  +
             +    50  -0.200000   0.142857  -0.333333   0.0063492  +
             +    51  -0.200000   0.142857  -0.222222   0.0063492  +
             +    52  -0.200000   0.142857  -0.111111   0.0063492  +
             +    53  -0.200000   0.142857   0.000000   0.0063492  +
             +    54  -0.200000   0.142857   0.111111   0.0063492  +
             +    55  -0.200000   0.285714   0.222222   0.0063492  +
             +    56  -0.200000   0.285714   0.444444   0.0063492  +
             +    57  -0.200000   0.428571  -0.444444   0.0063492  +
             +    58  -0.200000   0.428571   0.222222   0.0063492  +
             +    59   0.000000  -0.428571  -0.333333   0.0063492  +
             +    60   0.000000  -0.428571  -0.222222   0.0063492  +
             +    61   0.000000  -0.428571   0.000000   0.0063492  +
             +    62   0.000000  -0.428571   0.111111   0.0063492  +
             +    63   0.000000  -0.428571   0.222222   0.0063492  +
             +    64   0.000000  -0.428571   0.333333   0.0063492  +
             +    65   0.000000  -0.428571   0.444444   0.0063492  +
             +    66   0.000000  -0.285714  -0.333333   0.0063492  +
             +    67   0.000000  -0.285714  -0.111111   0.0063492  +
             +    68   0.000000  -0.285714   0.000000   0.0063492  +
             +    69   0.000000  -0.285714   0.111111   0.0063492  +
             +    70   0.000000  -0.285714   0.222222   0.0063492  +
             +    71   0.000000  -0.285714   0.333333   0.0063492  +
             +    72   0.000000  -0.285714   0.444444   0.0063492  +
             +    73   0.000000  -0.142857  -0.333333   0.0063492  +
             +    74   0.000000  -0.142857  -0.222222   0.0063492  +
             +    75   0.000000  -0.142857  -0.111111   0.0063492  +
             +    76   0.000000  -0.142857   0.000000   0.0063492  +
             +    77   0.000000  -0.142857   0.111111   0.0063492  +
             +    78   0.000000  -0.142857   0.222222   0.0063492  +
             +    79   0.000000  -0.142857   0.333333   0.0063492  +
             +    80   0.000000  -0.142857   0.444444   0.0063492  +
             +    81   0.000000   0.000000  -0.444444   0.0063492  +
             +    82   0.000000   0.000000  -0.333333   0.0063492  +
             +    83   0.000000   0.000000  -0.222222   0.0063492  +
             +    84   0.000000   0.000000  -0.111111   0.0063492  +
             +    85   0.000000   0.000000   0.000000   0.0031746  +
             +    86   0.000000   0.142857   0.444444   0.0063492  +
             +    87   0.000000   0.285714   0.222222   0.0063492  +
             +    88   0.000000   0.285714   0.444444   0.0063492  +
             +    89   0.000000   0.428571   0.111111   0.0063492  +
             +    90   0.000000   0.428571   0.444444   0.0063492  +
             +    91   0.200000  -0.428571  -0.444444   0.0063492  +
             +    92   0.200000  -0.428571  -0.333333   0.0063492  +
             +    93   0.200000  -0.428571  -0.111111   0.0063492  +
             +    94   0.200000  -0.428571   0.000000   0.0063492  +
             +    95   0.200000  -0.428571   0.111111   0.0063492  +
             +    96   0.200000  -0.428571   0.222222   0.0063492  +
             +    97   0.200000  -0.428571   0.333333   0.0063492  +
             +    98   0.200000  -0.285714  -0.333333   0.0063492  +
             +    99   0.200000  -0.285714  -0.111111   0.0063492  +
             +   100   0.200000  -0.285714   0.000000   0.0063492  +
             +   101   0.200000  -0.285714   0.111111   0.0063492  +
             +   102   0.200000  -0.285714   0.222222   0.0063492  +
             +   103   0.200000  -0.285714   0.333333   0.0063492  +
             +   104   0.200000  -0.285714   0.444444   0.0063492  +
             +   105   0.200000  -0.142857  -0.444444   0.0063492  +
             +   106   0.200000  -0.142857  -0.333333   0.0063492  +
             +   107   0.200000  -0.142857  -0.222222   0.0063492  +
             +   108   0.200000   0.142857  -0.444444   0.0063492  +
             +   109   0.200000   0.142857   0.333333   0.0063492  +
             +   110   0.200000   0.285714   0.222222   0.0063492  +
             +   111   0.200000   0.285714   0.333333   0.0063492  +
             +   112   0.200000   0.428571  -0.444444   0.0063492  +
             +   113   0.200000   0.428571   0.111111   0.0063492  +
             +   114   0.400000  -0.428571  -0.333333   0.0063492  +
             +   115   0.400000  -0.428571  -0.222222   0.0063492  +
             +   116   0.400000  -0.428571   0.000000   0.0063492  +
             +   117   0.400000  -0.428571   0.111111   0.0063492  +
             +   118   0.400000  -0.428571   0.222222   0.0063492  +
             +   119   0.400000  -0.428571   0.333333   0.0063492  +
             +   120   0.400000  -0.428571   0.444444   0.0063492  +
             +   121   0.400000  -0.285714  -0.444444   0.0063492  +
             +   122   0.400000  -0.285714  -0.333333   0.0063492  +
             +   123   0.400000  -0.285714  -0.222222   0.0063492  +
             +   124   0.400000  -0.285714  -0.111111   0.0063492  +
             +   125   0.400000  -0.285714   0.000000   0.0063492  +
             +   126   0.400000  -0.285714   0.111111   0.0063492  +
             +   127   0.400000  -0.285714   0.222222   0.0063492  +
             +   128   0.400000  -0.285714   0.333333   0.0063492  +
             +   129   0.400000  -0.142857  -0.222222   0.0063492  +
             +   130   0.400000  -0.142857  -0.111111   0.0063492  +
             +   131   0.400000  -0.142857   0.000000   0.0063492  +
             +   132   0.400000  -0.142857   0.111111   0.0063492  +
             +   133   0.400000  -0.142857   0.222222   0.0063492  +
             +   134   0.400000  -0.142857   0.444444   0.0063492  +
             +   135   0.400000   0.000000  -0.222222   0.0063492  +
             +   136   0.400000   0.000000   0.111111   0.0063492  +
             +   137   0.400000   0.000000   0.222222   0.0063492  +
             +   138   0.400000   0.000000   0.333333   0.0063492  +
             +   139   0.400000   0.142857  -0.444444   0.0063492  +
             +   140   0.400000   0.142857  -0.333333   0.0063492  +
             +   141   0.400000   0.142857  -0.222222   0.0063492  +
             +   142   0.400000   0.142857  -0.111111   0.0063492  +
             +   143   0.400000   0.142857   0.000000   0.0063492  +
             +   144   0.400000   0.142857   0.111111   0.0063492  +
             +   145   0.400000   0.142857   0.222222   0.0063492  +
             +   146   0.400000   0.142857   0.444444   0.0063492  +
             +   147   0.400000   0.285714  -0.333333   0.0063492  +
             +   148   0.400000   0.285714  -0.111111   0.0063492  +
             +   149   0.400000   0.285714   0.000000   0.0063492  +
             +   150   0.400000   0.285714   0.111111   0.0063492  +
             +   151   0.400000   0.285714   0.444444   0.0063492  +
             +   152   0.400000   0.428571  -0.444444   0.0063492  +
             +   153   0.400000   0.428571  -0.222222   0.0063492  +
             +   154   0.400000   0.428571  -0.111111   0.0063492  +
             +   155   0.400000   0.428571   0.000000   0.0063492  +
             +   156   0.400000   0.428571   0.222222   0.0063492  +
             +   157   0.400000   0.428571   0.333333   0.0063492  +
             +   158   0.400000   0.428571   0.444444   0.0063492  +
             +++++++++++++++++++++++++++++++++++++++++++++++++++++++
 
                           -------------------------------
                               Symmetry and Constraints
                           -------------------------------
 
         There are no symmetry operations specified or generated for this cell
                      Number of ionic constraints     =           3
                      Maximum deviation from symmetry =  0.00000         ANG
               Point group of crystal =     1: C1, 1, 1
 
                          Centre of mass is constrained
             Set iprint > 1 for details of linear ionic constraints
 
                         Number of cell constraints= 0
                         Cell constraints are:  1 2 3 4 5 6
 
                         External pressure/stress (GPa)
                        100.00000   0.00000   0.00000
                                  100.00000   0.00000
                                            100.00000
  
+---------------- MEMORY AND SCRATCH DISK ESTIMATES PER NODE -----------------+
|                                                     Memory          Disk    |
| Model and support data                               39.2 MB         0.0 MB |
| Electronic energy minimisation requirements          28.1 MB         0.0 MB |
|                                               ----------------------------- |
| Approx. total storage required per node              67.3 MB         0.0 MB |
|                                                                             |
| Requirements will fluctuate during execution and may exceed these estimates |
+-----------------------------------------------------------------------------+
Calculating finite basis set correction with  3 cut-off energies.
Calculating total energy with cut-off of  290.000eV.
------------------------------------------------------------------------ <-- SCF
SCF loop      Energy           Fermi           Energy gain       Timer   <-- SCF
                               energy          per atom          (sec)   <-- SCF
------------------------------------------------------------------------ <-- SCF
Initial  -4.70585198E+002  0.00000000E+000                         1.14  <-- SCF
      1  -1.85676856E+003  7.12569166E+000   3.46545841E+002       5.80  <-- SCF
      2  -1.93879559E+003  3.23783111E+000   2.05067569E+001       9.07  <-- SCF
      3  -1.94107903E+003  3.24233178E+000   5.70859848E-001      12.47  <-- SCF
      4  -1.94121118E+003  3.73579914E+000   3.30375775E-002      16.12  <-- SCF
      5  -1.94209437E+003  3.40822211E+000   2.20796758E-001      19.89  <-- SCF
      6  -1.94116808E+003  3.16523601E+000  -2.31570962E-001      23.50  <-- SCF
      7  -1.94109806E+003  3.47910957E+000  -1.75062817E-002      27.09  <-- SCF
      8  -1.94111123E+003  3.44398912E+000   3.29380007E-003      30.81  <-- SCF
      9  -1.94111139E+003  3.44696968E+000   4.04017147E-005      34.61  <-- SCF
     10  -1.94245072E+003  2.66653914E+000   3.34832004E-001      37.36  <-- SCF
     11  -1.94287333E+003  3.06401176E+000   1.05651369E-001      40.95  <-- SCF
     12  -1.94325308E+003  2.41885013E+000   9.49376828E-002      44.48  <-- SCF
     13  -1.94318009E+003  2.41507626E+000  -1.82475589E-002      48.03  <-- SCF
     14  -1.94298743E+003  2.69513998E+000  -4.81647078E-002      51.56  <-- SCF
     15  -1.94302135E+003  2.67336037E+000   8.47925689E-003      55.23  <-- SCF
     16  -1.94302366E+003  2.67325266E+000   5.79430416E-004      59.01  <-- SCF
     17  -1.94302459E+003  2.67379601E+000   2.30926185E-004      62.67  <-- SCF
     18  -1.94302547E+003  2.67448635E+000   2.20070067E-004      65.44  <-- SCF
     19  -1.94302571E+003  2.67651524E+000   6.12869437E-005      68.47  <-- SCF
     20  -1.94302611E+003  2.67413686E+000   1.00204353E-004      71.43  <-- SCF
     21  -1.94302621E+003  2.67608568E+000   2.45653292E-005      73.71  <-- SCF
     22  -1.94302633E+003  2.67577334E+000   3.04958919E-005      75.92  <-- SCF
     23  -1.94302641E+003  2.67609280E+000   1.92976202E-005      78.12  <-- SCF
     24  -1.94302645E+003  2.67635246E+000   8.61054543E-006      80.31  <-- SCF
     25  -1.94302650E+003  2.67646287E+000   1.25876784E-005      82.50  <-- SCF
     26  -1.94302651E+003  2.67654189E+000   4.48117177E-006      84.69  <-- SCF
     27  -1.94302653E+003  2.67659847E+000   3.00993457E-006      86.88  <-- SCF
------------------------------------------------------------------------ <-- SCF
 
 2*Integrated Spin Density   =    0.268312    
 2*Integrated |Spin Density| =    0.300701    
 
Final energy, E             =  -1942.957630047     eV
Final free energy (E-TS)    =  -1943.026526014     eV
(energies not corrected for finite basis set)
 
NB est. 0K energy (E-0.5TS)      =  -1942.992078030     eV
 
Calculating total energy with cut-off of  295.000eV.
------------------------------------------------------------------------ <-- SCF
SCF loop      Energy           Fermi           Energy gain       Timer   <-- SCF
                               energy          per atom          (sec)   <-- SCF
------------------------------------------------------------------------ <-- SCF
Initial  -1.94295763E+003  0.00000000E+000                        87.32  <-- SCF
      1  -1.94308534E+003  2.67250592E+000   3.19258660E-002      90.82  <-- SCF
      2  -1.94308548E+003  2.67249807E+000   3.56811172E-005      95.35  <-- SCF
      3  -1.94308578E+003  2.69607054E+000   7.53420795E-005      98.45  <-- SCF
      4  -1.94308547E+003  2.67744041E+000  -7.64948339E-005     101.26  <-- SCF
      5  -1.94308549E+003  2.67665406E+000   2.98828002E-006     103.47  <-- SCF
      6  -1.94308546E+003  2.67747486E+000  -5.46173094E-006     105.68  <-- SCF
------------------------------------------------------------------------ <-- SCF
 
 2*Integrated Spin Density   =    0.264963    
 2*Integrated |Spin Density| =    0.297646    
 
Final energy, E             =  -1943.016611199     eV
Final free energy (E-TS)    =  -1943.085463363     eV
(energies not corrected for finite basis set)
 
NB est. 0K energy (E-0.5TS)      =  -1943.051037281     eV
 
Calculating total energy with cut-off of  300.000eV.
------------------------------------------------------------------------ <-- SCF
SCF loop      Energy           Fermi           Energy gain       Timer   <-- SCF
                               energy          per atom          (sec)   <-- SCF
------------------------------------------------------------------------ <-- SCF
Initial  -1.94301661E+003  0.00000000E+000                       106.11  <-- SCF
      1  -1.94313039E+003  2.67431496E+000   2.84434662E-002     109.68  <-- SCF
      2  -1.94313049E+003  2.67430897E+000   2.59418598E-005     114.16  <-- SCF
      3  -1.94313145E+003  2.69335049E+000   2.38649405E-004     117.77  <-- SCF
      4  -1.94313051E+003  2.68614839E+000  -2.33935941E-004     121.22  <-- SCF
      5  -1.94313048E+003  2.67744270E+000  -8.00417915E-006     123.48  <-- SCF
      6  -1.94313049E+003  2.67826351E+000   1.64788495E-006     125.72  <-- SCF
------------------------------------------------------------------------ <-- SCF
 
 2*Integrated Spin Density   =    0.259107    
 2*Integrated |Spin Density| =    0.291219    
 
Final energy, E             =  -1943.061598385     eV
Final free energy (E-TS)    =  -1943.130485965     eV
(energies not corrected for finite basis set)
 
NB est. 0K energy (E-0.5TS)      =  -1943.096042175     eV
 
 For future reference: finite basis dEtot/dlog(Ecut) =      -3.102126eV
 Total energy corrected for finite basis set =   -1943.131826 eV
 
+---------------- MEMORY AND SCRATCH DISK ESTIMATES PER NODE -----------------+
|                                                     Memory          Disk    |
| Model and support data                               40.5 MB         0.0 MB |
| Electronic energy minimisation requirements          28.1 MB         0.0 MB |
| Geometry minimisation requirements                   41.3 MB         0.0 MB |
|                                               ----------------------------- |
| Approx. total storage required per node             110.0 MB         0.0 MB |
|                                                                             |
| Requirements will fluctuate during execution and may exceed these estimates |
+-----------------------------------------------------------------------------+
 
 
 *********************************** Forces ***********************************
 *                                                                            *
 *                        Cartesian components (eV/A)                         *
 * -------------------------------------------------------------------------- *
 *                   x                    y                    z              *
 *                                                                            *
 * Si        1     -1.50258              4.91476              0.44452         *
 * Si        2     -0.15277             -2.32335              2.12507         *
 * Fe        1      3.34847             -5.53007             -0.94000         *
 * Fe        2     -1.69312              2.93866             -1.62959         *
 *                                                                            *
 ******************************************************************************
 
 ***************** Stress Tensor *****************
 *                                               *
 *          Cartesian components (GPa)           *
 * --------------------------------------------- *
 *             x             y             z     *
 *                                               *
 *  x    -50.649808     22.589406      8.514405  *
 *  y     22.589406   -104.503007    -53.323960  *
 *  z      8.514405    -53.323960    -66.217463  *
 *                                               *
 *  Pressure:   73.7901                          *
 *                                               *
 *************************************************
 BFGS: finished iteration     0 with enthalpy= -1.91934327E+003 eV
  
 +-----------+-----------------+-----------------+------------+-----+ <-- BFGS
 | Parameter |      value      |    tolerance    |    units   | OK? | <-- BFGS
 +-----------+-----------------+-----------------+------------+-----+ <-- BFGS
 |  dE/ion   |   0.000000E+000 |   2.000000E-005 |         eV | No  | <-- BFGS
 |  |F|max   |   6.532805E+000 |   5.000000E-002 |       eV/A | No  | <-- BFGS
 |  |dR|max  |   0.000000E+000 |   1.000000E-003 |          A | No  | <-- BFGS
 |   Smax    |   5.332396E+001 |   1.000000E-001 |        GPa | No  | <-- BFGS
 +-----------+-----------------+-----------------+------------+-----+ <-- BFGS
  

================================================================================
 Starting BFGS iteration          1 ...
================================================================================
  
 +------------+-------------+-------------+-----------------+ <-- min BFGS
 |    Step    |   lambda    |   F.delta   |    enthalpy     | <-- min BFGS
 +------------+-------------+-------------+-----------------+ <-- min BFGS
 |  previous  |    0.000000 |    0.068895 |    -1919.343275 | <-- min BFGS
 +------------+-------------+-------------+-----------------+ <-- min BFGS
  

--------------------------------------------------------------------------------
 BFGS: starting iteration         1 with trial guess (lambda=  1.000000)
--------------------------------------------------------------------------------
 
                           -------------------------------
                                      Unit Cell
                           -------------------------------
        Real Lattice(A)              Reciprocal Lattice(1/A)
   4.0126424  -0.0624846  -0.0235517        1.5720118   0.4287291  -0.0871665
  -1.0608742   3.9192101   0.1442377        0.0302704   1.5753877   0.9777115
   0.5086111  -1.4071373   2.2515751        0.0145043  -0.0964360   2.7270286
 
                       Lattice parameters(A)       Cell Angles
                    a =    4.013198          alpha =  121.444235
                    b =    4.062815          beta  =   78.969662
                    c =    2.703389          gamma =  106.040076
 
                Current cell volume =   36.081512 A**3
 
                           -------------------------------
                                     Cell Contents
                           -------------------------------
 
            xxxxxxxxxxxxxxxxxxxxxxxxxxxxxxxxxxxxxxxxxxxxxxxxxxxxxxxxxxxx
            x  Element    Atom        Fractional coordinates of atoms  x
            x            Number           u          v          w      x
            x----------------------------------------------------------x
            x  Si           1         0.185486   0.668733   0.740972   x
            x  Si           2         0.853748   0.136218   0.088841   x
            x  Fe           1         0.300845   0.178292   0.536618   x
            x  Fe           2         0.718753   0.647742   0.340815   x
            xxxxxxxxxxxxxxxxxxxxxxxxxxxxxxxxxxxxxxxxxxxxxxxxxxxxxxxxxxxx
 
 
------------------------------------------------------------------------ <-- SCF
SCF loop      Energy           Fermi           Energy gain       Timer   <-- SCF
                               energy          per atom          (sec)   <-- SCF
------------------------------------------------------------------------ <-- SCF
Initial  -1.93919965E+003  0.00000000E+000                       128.20  <-- SCF
      1  -1.94980677E+003  5.34727725E+000   2.65178176E+000     131.93  <-- SCF
      2  -1.94982985E+003  5.34612217E+000   5.76901224E-003     136.00  <-- SCF
      3  -1.99528242E+003 -2.14662987E+000   1.13631437E+001     139.69  <-- SCF
      4  -1.99534973E+003 -2.14590414E+000   1.68271580E-002     143.02  <-- SCF
      5  -1.94257606E+003  2.89003279E+000  -1.31934195E+001     146.58  <-- SCF
      6  -1.94259114E+003  2.88895644E+000   3.77202003E-003     150.06  <-- SCF
      7  -1.94351195E+003  2.95775192E+000   2.30202177E-001     153.59  <-- SCF
      8  -1.94352327E+003  2.97364963E+000   2.82890111E-003     157.71  <-- SCF
      9  -1.94350496E+003  2.97751961E+000  -4.57732479E-003     161.37  <-- SCF
     10  -1.94350534E+003  2.98492238E+000   9.61394897E-005     165.09  <-- SCF
     11  -1.94350534E+003  2.98722726E+000  -5.32188408E-007     167.57  <-- SCF
     12  -1.94350535E+003  2.98745384E+000   2.44221170E-006     169.80  <-- SCF
------------------------------------------------------------------------ <-- SCF
 
 2*Integrated Spin Density   =    0.354569E-02
 2*Integrated |Spin Density| =    0.461943E-02
 
Final energy, E             =  -1943.444130586     eV
Final free energy (E-TS)    =  -1943.505350837     eV
(energies not corrected for finite basis set)
 
NB est. 0K energy (E-0.5TS)      =  -1943.474740711     eV
 
 
 *********************************** Forces ***********************************
 *                                                                            *
 *                        Cartesian components (eV/A)                         *
 * -------------------------------------------------------------------------- *
 *                   x                    y                    z              *
 *                                                                            *
 * Si        1     -0.50627              3.22614              0.03807         *
 * Si        2     -1.31404             -1.55871              2.37416         *
 * Fe        1      3.05680             -4.01502             -0.49977         *
 * Fe        2     -1.23649              2.34759             -1.91245         *
 *                                                                            *
 ******************************************************************************
 
 ***************** Stress Tensor *****************
 *                                               *
 *          Cartesian components (GPa)           *
 * --------------------------------------------- *
 *             x             y             z     *
 *                                               *
 *  x    -71.012105      9.162545     12.295063  *
 *  y      9.162545   -108.075674    -46.423919  *
 *  z     12.295063    -46.423919    -86.374390  *
 *                                               *
 *  Pressure:   88.4874                          *
 *                                               *
 *************************************************
  
 +------------+-------------+-------------+-----------------+ <-- min BFGS
 |    Step    |   lambda    |   F.delta   |    enthalpy     | <-- min BFGS
 +------------+-------------+-------------+-----------------+ <-- min BFGS
 |  previous  |    0.000000 |    0.068895 |    -1919.343275 | <-- min BFGS
 | trial step |    1.000000 |    0.048367 |    -1920.984499 | <-- min BFGS
 +------------+-------------+-------------+-----------------+ <-- min BFGS
  

--------------------------------------------------------------------------------
 BFGS: improving iteration         1 with line minimization (lambda=  1.741117)
--------------------------------------------------------------------------------
 
                           -------------------------------
                                      Unit Cell
                           -------------------------------
        Real Lattice(A)              Reciprocal Lattice(1/A)
   3.9114743  -0.1087929  -0.0410063        1.6178503   0.4491597  -0.0943988
  -1.0790423   3.9394358   0.2511347        0.0530720   1.5486924   0.9535842
   0.5025875  -1.3540115   2.1710448        0.0244186  -0.1706607   2.7819953
 
                       Lattice parameters(A)       Cell Angles
                    a =    3.913202          alpha =  119.973504
                    b =    4.092255          beta  =   78.558410
                    c =    2.607561          gamma =  106.915982
 
                Current cell volume =   34.536370 A**3
 
                           -------------------------------
                                     Cell Contents
                           -------------------------------
 
            xxxxxxxxxxxxxxxxxxxxxxxxxxxxxxxxxxxxxxxxxxxxxxxxxxxxxxxxxxxx
            x  Element    Atom        Fractional coordinates of atoms  x
            x            Number           u          v          w      x
            x----------------------------------------------------------x
            x  Si           1         0.185396   0.671037   0.741297   x
            x  Si           2         0.853381   0.135778   0.090396   x
            x  Fe           1         0.301646   0.175578   0.535931   x
            x  Fe           2         0.718410   0.648592   0.339623   x
            xxxxxxxxxxxxxxxxxxxxxxxxxxxxxxxxxxxxxxxxxxxxxxxxxxxxxxxxxxxx
 
 
------------------------------------------------------------------------ <-- SCF
SCF loop      Energy           Fermi           Energy gain       Timer   <-- SCF
                               energy          per atom          (sec)   <-- SCF
------------------------------------------------------------------------ <-- SCF
Initial  -1.94075517E+003  0.00000000E+000                       171.83  <-- SCF
      1  -1.94728390E+003  5.15725987E+000   1.63218171E+000     175.44  <-- SCF
      2  -1.94729283E+003  5.15677682E+000   2.23275040E-003     179.49  <-- SCF
      3  -1.97547420E+003 -1.48951949E+000   7.04534245E+000     183.07  <-- SCF
      4  -1.97550388E+003 -1.48902616E+000   7.42027884E-003     186.37  <-- SCF
      5  -1.94271542E+003  3.27683516E+000  -8.19711671E+000     189.90  <-- SCF
      6  -1.94272216E+003  3.27642519E+000   1.68655164E-003     193.27  <-- SCF
      7  -1.94333725E+003  3.23429052E+000   1.53771537E-001     196.74  <-- SCF
      8  -1.94335323E+003  3.23388338E+000   3.99548259E-003     200.73  <-- SCF
      9  -1.94333031E+003  3.23368196E+000  -5.72937405E-003     204.31  <-- SCF
     10  -1.94333102E+003  3.23585763E+000   1.77444621E-004     207.95  <-- SCF
     11  -1.94333102E+003  3.23641931E+000   3.75666694E-007     210.24  <-- SCF
     12  -1.94333102E+003  3.23626783E+000   1.27116499E-007     212.46  <-- SCF
------------------------------------------------------------------------ <-- SCF
 
 2*Integrated Spin Density   =    0.254232E-04
 2*Integrated |Spin Density| =    0.422750E-04
 
Final energy, E             =  -1943.276414514     eV
Final free energy (E-TS)    =  -1943.331024598     eV
(energies not corrected for finite basis set)
 
NB est. 0K energy (E-0.5TS)      =  -1943.303719556     eV
 
 
 *********************************** Forces ***********************************
 *                                                                            *
 *                        Cartesian components (eV/A)                         *
 * -------------------------------------------------------------------------- *
 *                   x                    y                    z              *
 *                                                                            *
 * Si        1      0.21509              2.13606             -0.21943         *
 * Si        2     -2.26999             -1.11868              2.61180         *
 * Fe        1      3.12681             -2.97416             -0.27600         *
 * Fe        2     -1.07191              1.95678             -2.11637         *
 *                                                                            *
 ******************************************************************************
 
 ***************** Stress Tensor *****************
 *                                               *
 *          Cartesian components (GPa)           *
 * --------------------------------------------- *
 *             x             y             z     *
 *                                               *
 *  x    -95.130152     -0.939020     17.504764  *
 *  y     -0.939020   -114.529705    -36.791387  *
 *  z     17.504764    -36.791387   -108.635988  *
 *                                               *
 *  Pressure:  106.0986                          *
 *                                               *
 *************************************************
  
 +------------+-------------+-------------+-----------------+ <-- min BFGS
 |    Step    |   lambda    |   F.delta   |    enthalpy     | <-- min BFGS
 +------------+-------------+-------------+-----------------+ <-- min BFGS
 |  previous  |    0.000000 |    0.068895 |    -1919.343275 | <-- min BFGS
 | trial step |    1.000000 |    0.048367 |    -1920.984499 | <-- min BFGS
 |  line step |    1.741117 |    0.027106 |    -1921.774922 | <-- min BFGS
 +------------+-------------+-------------+-----------------+ <-- min BFGS
  
 BFGS: finished iteration     1 with enthalpy= -1.92177492E+003 eV
  
 +-----------+-----------------+-----------------+------------+-----+ <-- BFGS
 | Parameter |      value      |    tolerance    |    units   | OK? | <-- BFGS
 +-----------+-----------------+-----------------+------------+-----+ <-- BFGS
 |  dE/ion   |   6.079118E-001 |   2.000000E-005 |         eV | No  | <-- BFGS
 |  |F|max   |   4.324198E+000 |   5.000000E-002 |       eV/A | No  | <-- BFGS
 |  |dR|max  |   2.725195E-002 |   1.000000E-003 |          A | No  | <-- BFGS
 |   Smax    |   3.679139E+001 |   1.000000E-001 |        GPa | No  | <-- BFGS
 +-----------+-----------------+-----------------+------------+-----+ <-- BFGS
  

================================================================================
 Starting BFGS iteration          2 ...
================================================================================
  
 +------------+-------------+-------------+-----------------+ <-- min BFGS
 |    Step    |   lambda    |   F.delta   |    enthalpy     | <-- min BFGS
 +------------+-------------+-------------+-----------------+ <-- min BFGS
 |  previous  |    0.000000 |    0.057917 |    -1921.774922 | <-- min BFGS
 +------------+-------------+-------------+-----------------+ <-- min BFGS
  

--------------------------------------------------------------------------------
 BFGS: starting iteration         2 with trial guess (lambda=  0.907299)
--------------------------------------------------------------------------------
 
                           -------------------------------
                                      Unit Cell
                           -------------------------------
        Real Lattice(A)              Reciprocal Lattice(1/A)
   3.7829596  -0.1520341  -0.1253819        1.6767099   0.4666295  -0.0893511
  -1.0867990   4.0023986   0.5080056        0.0885989   1.4828381   0.8751186
   0.4518274  -1.2324177   2.0425169        0.0808905  -0.3401603   2.8530570
 
                       Lattice parameters(A)       Cell Angles
                    a =    3.788089          alpha =  115.616778
                    b =    4.178325          beta  =   79.725117
                    c =    2.427937          gamma =  107.591047
 
                Current cell volume =   32.980408 A**3
 
                           -------------------------------
                                     Cell Contents
                           -------------------------------
 
            xxxxxxxxxxxxxxxxxxxxxxxxxxxxxxxxxxxxxxxxxxxxxxxxxxxxxxxxxxxx
            x  Element    Atom        Fractional coordinates of atoms  x
            x            Number           u          v          w      x
            x----------------------------------------------------------x
            x  Si           1         0.185903   0.675371   0.741527   x
            x  Si           2         0.850883   0.135879   0.095700   x
            x  Fe           1         0.304379   0.169629   0.534483   x
            x  Fe           2         0.717667   0.650108   0.335535   x
            xxxxxxxxxxxxxxxxxxxxxxxxxxxxxxxxxxxxxxxxxxxxxxxxxxxxxxxxxxxx
 
 
------------------------------------------------------------------------ <-- SCF
SCF loop      Energy           Fermi           Energy gain       Timer   <-- SCF
                               energy          per atom          (sec)   <-- SCF
------------------------------------------------------------------------ <-- SCF
Initial  -1.93534171E+003  0.00000000E+000                       214.45  <-- SCF
      1  -1.94621540E+003  5.25126815E+000   2.71842049E+000     218.09  <-- SCF
      2  -1.94628765E+003  5.24921366E+000   1.80635941E-002     221.95  <-- SCF
      3  -1.96516115E+003 -6.37180011E-001   4.71837508E+000     225.49  <-- SCF
      4  -1.96517652E+003 -6.36865284E-001   3.84292446E-003     228.68  <-- SCF
      5  -1.94275594E+003  3.59991837E+000  -5.60514565E+000     232.12  <-- SCF
      6  -1.94275968E+003  3.59968967E+000   9.35832882E-004     235.39  <-- SCF
      7  -1.94349076E+003  3.64359000E+000   1.82768475E-001     238.85  <-- SCF
      8  -1.94309584E+003  3.49188488E+000  -9.87298746E-002     242.30  <-- SCF
      9  -1.94310804E+003  3.49962286E+000   3.05021241E-003     245.93  <-- SCF
     10  -1.94310801E+003  3.49980266E+000  -6.09486110E-006     248.84  <-- SCF
     11  -1.94310802E+003  3.49950736E+000   5.22442580E-007     251.10  <-- SCF
------------------------------------------------------------------------ <-- SCF
 
 2*Integrated Spin Density   =    0.421724E-06
 2*Integrated |Spin Density| =    0.136278E-05
 
Final energy, E             =  -1943.054218278     eV
Final free energy (E-TS)    =  -1943.108016327     eV
(energies not corrected for finite basis set)
 
NB est. 0K energy (E-0.5TS)      =  -1943.081117303     eV
 
 
 *********************************** Forces ***********************************
 *                                                                            *
 *                        Cartesian components (eV/A)                         *
 * -------------------------------------------------------------------------- *
 *                   x                    y                    z              *
 *                                                                            *
 * Si        1      1.54471              0.13436             -0.25945         *
 * Si        2     -3.54065             -0.11087              1.99590         *
 * Fe        1      3.36289             -1.35429              0.06715         *
 * Fe        2     -1.36696              1.33080             -1.80361         *
 *                                                                            *
 ******************************************************************************
 
 ***************** Stress Tensor *****************
 *                                               *
 *          Cartesian components (GPa)           *
 * --------------------------------------------- *
 *             x             y             z     *
 *                                               *
 *  x   -128.329585     -8.780220     22.804358  *
 *  y     -8.780220   -108.234024      1.066404  *
 *  z     22.804358      1.066404   -141.152346  *
 *                                               *
 *  Pressure:  125.9053                          *
 *                                               *
 *************************************************
  
 +------------+-------------+-------------+-----------------+ <-- min BFGS
 |    Step    |   lambda    |   F.delta   |    enthalpy     | <-- min BFGS
 +------------+-------------+-------------+-----------------+ <-- min BFGS
 |  previous  |    0.000000 |    0.057917 |    -1921.774922 | <-- min BFGS
 | trial step |    0.907299 |   -0.002769 |    -1922.523025 | <-- min BFGS
 +------------+-------------+-------------+-----------------+ <-- min BFGS
  
 BFGS: finished iteration     2 with enthalpy= -1.92252303E+003 eV
  
 +-----------+-----------------+-----------------+------------+-----+ <-- BFGS
 | Parameter |      value      |    tolerance    |    units   | OK? | <-- BFGS
 +-----------+-----------------+-----------------+------------+-----+ <-- BFGS
 |  dE/ion   |   1.870258E-001 |   2.000000E-005 |         eV | No  | <-- BFGS
 |  |F|max   |   4.065968E+000 |   5.000000E-002 |       eV/A | No  | <-- BFGS
 |  |dR|max  |   2.836528E-002 |   1.000000E-003 |          A | No  | <-- BFGS
 |   Smax    |   4.115235E+001 |   1.000000E-001 |        GPa | No  | <-- BFGS
 +-----------+-----------------+-----------------+------------+-----+ <-- BFGS
  
 BFGS : WARNING - Geometry optimization failed to converge after          2 steps

================================================================================
 BFGS : Final Configuration:
================================================================================
 
                           -------------------------------
                                      Unit Cell
                           -------------------------------
        Real Lattice(A)              Reciprocal Lattice(1/A)
   3.7829596  -0.1520341  -0.1253819        1.6767099   0.4666295  -0.0893511
  -1.0867990   4.0023986   0.5080056        0.0885989   1.4828381   0.8751186
   0.4518274  -1.2324177   2.0425169        0.0808905  -0.3401603   2.8530570
 
                       Lattice parameters(A)       Cell Angles
                    a =    3.788089          alpha =  115.616778
                    b =    4.178325          beta  =   79.725117
                    c =    2.427937          gamma =  107.591047
 
                Current cell volume =   32.980408 A**3
 
                           -------------------------------
                                     Cell Contents
                           -------------------------------
 
            xxxxxxxxxxxxxxxxxxxxxxxxxxxxxxxxxxxxxxxxxxxxxxxxxxxxxxxxxxxx
            x  Element    Atom        Fractional coordinates of atoms  x
            x            Number           u          v          w      x
            x----------------------------------------------------------x
            x  Si           1         0.185903   0.675371   0.741527   x
            x  Si           2         0.850883   0.135879   0.095700   x
            x  Fe           1         0.304379   0.169629   0.534483   x
            x  Fe           2         0.717667   0.650108   0.335535   x
            xxxxxxxxxxxxxxxxxxxxxxxxxxxxxxxxxxxxxxxxxxxxxxxxxxxxxxxxxxxx
 
 
 BFGS : Final Enthalpy     = -1.92252303E+003 eV
 BFGS : Final <frequency>  =    1489.86716 cm-1
 BFGS : Final bulk modulus =    1016.18734 GPa
  
  **********************************************************
  *** There were at least     1 warnings during this run ***
  *** => please check the whole of this file carefully!  ***
  **********************************************************
 
 *********************************** Forces ***********************************
 *                                                                            *
 *                        Cartesian components (eV/A)                         *
 * -------------------------------------------------------------------------- *
 *                   x                    y                    z              *
 *                                                                            *
 * Si        1      1.54471              0.13436             -0.25945         *
 * Si        2     -3.54065             -0.11087              1.99590         *
 * Fe        1      3.36289             -1.35429              0.06715         *
 * Fe        2     -1.36696              1.33080             -1.80361         *
 *                                                                            *
 ******************************************************************************
 
 ***************** Stress Tensor *****************
 *                                               *
 *          Cartesian components (GPa)           *
 * --------------------------------------------- *
 *             x             y             z     *
 *                                               *
 *  x   -128.329585     -8.780220     22.804358  *
 *  y     -8.780220   -108.234024      1.066404  *
 *  z     22.804358      1.066404   -141.152346  *
 *                                               *
 *  Pressure:  125.9053                          *
 *                                               *
 *************************************************
 
 Pseudo atomic calculation performed for Si 3s2 3p2
 
 Converged in 15 iterations to a total energy of -101.9008 eV
 
 
 Pseudo atomic calculation performed for Fe 3d6 4s2
 
 Converged in 32 iterations to a total energy of -855.8188 eV
 
Charge spilling parameter for spin component 1 = 1.12%
Charge spilling parameter for spin component 2 = 1.12%
 
     Atomic Populations (Mulliken)
     -----------------------------
Species   Ion     s      p      d      f     Total  Charge (e)  Spin (hbar)
===========================================================================
  Si       1     1.23   2.61   0.00   0.00   3.84     0.16        0.00
  Si       2     1.23   2.59   0.00   0.00   3.82     0.18        0.00
  Fe       1     0.56   0.39   7.23   0.00   8.18    -0.18        0.00
  Fe       2     0.55   0.39   7.23   0.00   8.16    -0.16        0.00
===========================================================================
 
     Bond                     Population        Spin       Length (A)
======================================================================
  Si 002 --   Fe 001              -0.29         0.00          2.11719
  Si 001 --   Fe 002              -0.21         0.00          2.13295
  Si 001 --   Fe 001              -0.62         0.00          2.23070
  Si 002 --   Fe 002              -0.60         0.00          2.23864
  Fe 001 --   Fe 002              -8.59         0.00          2.32029
  Si 001 --   Si 002               0.34         0.00          2.38921
======================================================================
 
 
Writing model to /dev/shm/check
 
Writing analysis data to FeSi-18407-FW6vm-0.castep_bin
Initialisation time =      0.50 s
Calculation time    =    253.04 s
Finalisation time   =      0.21 s
Total time          =    253.75 s
Peak Memory Use     = 275844 kB
 +-------------------------------------------------+
 |                                                 |
 |      CCC   AA    SSS  TTTTT  EEEEE  PPPP        |
 |     C     A  A  S       T    E      P   P       |
 |     C     AAAA   SS     T    EEE    PPPP        |
 |     C     A  A     S    T    E      P           |
 |      CCC  A  A  SSS     T    EEEEE  P           |
 |                                                 |
 +-------------------------------------------------+
 |                                                 |
 | Welcome to Academic Release CASTEP version 6.1  |
 | Ab Initio Total Energy Program                  |
 |                                                 |
 | Authors:                                        |
 | M. Segall, M. Probert, C. Pickard, P. Hasnip,   |
 | S. Clark, K. Refson, J. R. Yates, M. Payne      |
 |                                                 |
 | Contributors:                                   |
 | P. Lindan, P. Haynes, J. White, V. Milman,      |
 | N. Govind, M. Gibson, P. Tulip, V. Cocula,      |
 | B. Montanari, D. Quigley, M. Glover,            |
 | L. Bernasconi, A. Perlov, M. Plummer,           |
 | E. McNellis, J. Meyer, J. Gale, D. Jochym       |
 | J. Aarons, B. Walker, R. Gillen                 |
 |                                                 |
 | Copyright (c) 2000 - 2012                       |
 |                                                 |
 |     Distributed under the terms of an           |
 |     Agreement between the United Kingdom        |
 |     Car-Parrinello (UKCP) Consortium,           |
 |     Daresbury Laboratory and Accelrys, Inc.     |
 |                                                 |
 | Please cite                                     |
 |                                                 |
 |     "First principles methods using CASTEP"     |
 |                                                 |
 |         Zeitschrift fuer Kristallographie       |
 |           220(5-6) pp. 567-570 (2005)           |
 |                                                 |
 | S. J. Clark, M. D. Segall, C. J. Pickard,       |
 | P. J. Hasnip, M. J. Probert, K. Refson,         |
 | M. C. Payne                                     |
 |                                                 |
 |       in all publications arising from          |
 |              your use of CASTEP                 |
 |                                                 |
 +-------------------------------------------------+
 
 
 Compiled for linux_x86_64_ifort12 on Tue Oct  2 13:39:45 2012
 from source code version 66eceff98deb+  2012-10-01
 using fast optimisation, mkl FFTs and mkl10 LAPACK and BLAS.
 
 
 Pseudo atomic calculation performed for Si 3s2 3p2
 
 Converged in 15 iterations to a total energy of -101.9008 eV
 
 
 Pseudo atomic calculation performed for Fe 3d6 4s2
 
 Converged in 32 iterations to a total energy of -855.8188 eV
 
 Calculation parallelised over 8 processes.
 Data is distributed by k-point(8-way)

 ************************************ Title ************************************
 

 ***************************** General Parameters ******************************
  
 output verbosity                               : normal  (1)
 write checkpoint data to                       : /dev/shm/check
 type of calculation                            : geometry optimization
 stress calculation                             : off
 density difference calculation                 : off
 electron localisation func (ELF) calculation   : off
 Hirshfeld analysis                             : off
 unlimited duration calculation
 timing information                             : on
 memory usage estimate                          : on
 write final potential to formatted file        : off
 write final density to formatted file          : off
 write BibTeX reference list                    : off
  
 output         length unit                     : A
 output           mass unit                     : amu
 output           time unit                     : ps
 output         charge unit                     : e
 output         energy unit                     : eV
 output          force unit                     : eV/A
 output       velocity unit                     : A/ps
 output       pressure unit                     : GPa
 output     inv_length unit                     : 1/A
 output      frequency unit                     : cm-1
 output force constant unit                     : eV/A**2
 output         volume unit                     : A**3
 output   IR intensity unit                     : (D/A)**2/amu
 output         dipole unit                     : D
 output         efield unit                     : eV/A/e
 output        entropy unit                     : J/mol/K
  
 wavefunctions paging                           : none
 data distribution                              : optimal for this architecture
 optimization strategy                          : maximize speed(+++)

 *********************** Exchange-Correlation Parameters ***********************
  
 using functional                               : Perdew Burke Ernzerhof
 Divergence correction                          : off
 DFT+D: Semi-empirical dispersion correction    : off

 ************************* Pseudopotential Parameters **************************
  
 pseudopotential representation                 : reciprocal space
 <beta|phi> representation                      : reciprocal space

 **************************** Basis Set Parameters *****************************
  
 plane wave basis set cut-off                   :   300.0000   eV
 finite basis set correction                    : automatic
 number of sample energies                      :          3
           sample  spacing                      :     5.0000   eV

 **************************** Electronic Parameters ****************************
  
 number of  electrons                           :  24.00    
 net charge of system                           :  0.000    
 net spin   of system                           :  4.000    
 number of  up  spins                           :  14.00    
 number of down spins                           :  10.00    
 treating system as spin-polarized
 number of bands                                :         42

 ********************* Electronic Minimization Parameters **********************
  
 Method: Treating system as metallic with density mixing treatment of electrons,
         and number of  SD  steps               :          1
         and number of  CG  steps               :          4
  
 total energy / atom convergence tol.           : 0.1000E-04   eV
 eigen-energy convergence tolerance             : 0.9524E-06   eV
 max force / atom convergence tol.              : ignored
 convergence tolerance window                   :          3   cycles
 max. number of SCF cycles                      :      10000
 number of fixed-spin iterations                :         10
 smearing scheme                                : Gaussian
 smearing width                                 : 0.2000       eV
 Fermi energy convergence tolerance             : 0.9524E-07   eV
 periodic dipole correction                     : NONE

 ************************** Density Mixing Parameters **************************
  
 density-mixing scheme                          : Pulay
 max. length of mixing history                  :          5
 charge density mixing amplitude                : 0.8000    
   spin density mixing amplitude                :  2.000    
 cut-off energy for mixing                      :  300.0       eV

 *********************** Population Analysis Parameters ************************
  
 Population analysis with cutoff                :  3.000       A

 ********************** Geometry Optimization Parameters ***********************
  
 optimization method                            : LBFGS
 max. no. of LBFGS updates                      : unbounded
 variable cell method                           : fixed basis quality
 max. number of steps                           :          2
 estimated bulk modulus                         :  500.0       GPa
 estimated <frequency>                          :  1668.       cm-1
 geom line minimiser                            : on
 with line minimiser tolerance                  :     0.4000
  with spin fully able to relax for all steps
 total energy convergence tolerance             : 0.2000E-04   eV/atom
        max ionic |force| tolerance             : 0.5000E-01   eV/A
 max ionic |displacement| tolerance             : 0.1000E-02   A
   max |stress component| tolerance             : 0.1000       GPa
 convergence tolerance window                   :          2   steps
 backup results every                           : 2147483647   steps

 *******************************************************************************
  
 
                           -------------------------------
                                      Unit Cell
                           -------------------------------
        Real Lattice(A)                      Reciprocal Lattice(1/A)
   3.7880900   0.0000000   0.0000000        1.6586684   0.5258739  -0.0967229
  -1.2627756   3.9829436   0.0000000        0.0000000   1.5775231   0.6956390
   0.4330745  -0.9639187   2.1859094        0.0000000   0.0000000   2.8744033
 
                       Lattice parameters(A)       Cell Angles
                    a =    3.788090          alpha =  115.617000
                    b =    4.178330          beta  =   79.725100
                    c =    2.427940          gamma =  107.591000
 
                       Current cell volume =   32.980452       A**3
 
                           -------------------------------
                                     Cell Contents
                           -------------------------------
                         Total number of ions in cell =    4
                      Total number of species in cell =    2
                        Max number of any one species =    2
 
            xxxxxxxxxxxxxxxxxxxxxxxxxxxxxxxxxxxxxxxxxxxxxxxxxxxxxxxxxxxx
            x  Element    Atom        Fractional coordinates of atoms  x
            x            Number           u          v          w      x
            x----------------------------------------------------------x
            x  Si           1         0.185903   0.675371   0.741527   x
            x  Si           2         0.850883   0.135879   0.095700   x
            x  Fe           1         0.304379   0.169629   0.534483   x
            x  Fe           2         0.717667   0.650108   0.335535   x
            xxxxxxxxxxxxxxxxxxxxxxxxxxxxxxxxxxxxxxxxxxxxxxxxxxxxxxxxxxxx
 
 
                         No user defined ionic velocities
 
                           -------------------------------
                                   Details of Species
                           -------------------------------
 
                               Mass of species in AMU
                                    Si   28.0855000
                                    Fe   55.8450000
 
                          Electric Quadrupole Moment (Barn)
                                    Si    1.0000000 No Isotope Defined
                                    Fe    0.1600000 Isotope 57
 
                          Files used for pseudopotentials:
                                    Si ~/pspot/Si_00PBE.usp
                                    Fe ~/pspot/Fe_00PBE.uspcc
 
                           -------------------------------
                              k-Points For BZ Sampling
                           -------------------------------
                       MP grid size for SCF calculation is  6  6 10
                         Number of kpoints used =         180
 
             +++++++++++++++++++++++++++++++++++++++++++++++++++++++
             +  Number       Fractional coordinates        Weight  +
             +-----------------------------------------------------+
             +     1  -0.416667  -0.416667  -0.350000   0.0055556  +
             +     2  -0.416667  -0.416667  -0.150000   0.0055556  +
             +     3  -0.416667  -0.416667  -0.050000   0.0055556  +
             +     4  -0.416667  -0.416667   0.250000   0.0055556  +
             +     5  -0.416667  -0.250000  -0.450000   0.0055556  +
             +     6  -0.416667  -0.250000  -0.350000   0.0055556  +
             +     7  -0.416667  -0.250000   0.050000   0.0055556  +
             +     8  -0.416667  -0.250000   0.150000   0.0055556  +
             +     9  -0.416667  -0.250000   0.250000   0.0055556  +
             +    10  -0.416667  -0.250000   0.350000   0.0055556  +
             +    11  -0.416667  -0.083333  -0.450000   0.0055556  +
             +    12  -0.416667   0.083333  -0.450000   0.0055556  +
             +    13  -0.416667   0.083333  -0.350000   0.0055556  +
             +    14  -0.416667   0.083333  -0.250000   0.0055556  +
             +    15  -0.416667   0.083333  -0.150000   0.0055556  +
             +    16  -0.416667   0.083333  -0.050000   0.0055556  +
             +    17  -0.416667   0.083333   0.050000   0.0055556  +
             +    18  -0.416667   0.083333   0.150000   0.0055556  +
             +    19  -0.416667   0.083333   0.250000   0.0055556  +
             +    20  -0.416667   0.083333   0.350000   0.0055556  +
             +    21  -0.416667   0.250000  -0.350000   0.0055556  +
             +    22  -0.416667   0.416667   0.150000   0.0055556  +
             +    23  -0.250000  -0.416667  -0.150000   0.0055556  +
             +    24  -0.250000  -0.416667  -0.050000   0.0055556  +
             +    25  -0.250000  -0.416667   0.050000   0.0055556  +
             +    26  -0.250000  -0.416667   0.150000   0.0055556  +
             +    27  -0.250000  -0.416667   0.250000   0.0055556  +
             +    28  -0.250000  -0.416667   0.350000   0.0055556  +
             +    29  -0.250000  -0.416667   0.450000   0.0055556  +
             +    30  -0.250000  -0.250000  -0.350000   0.0055556  +
             +    31  -0.250000  -0.083333   0.350000   0.0055556  +
             +    32  -0.250000  -0.083333   0.450000   0.0055556  +
             +    33  -0.250000   0.083333   0.350000   0.0055556  +
             +    34  -0.250000   0.250000   0.050000   0.0055556  +
             +    35  -0.250000   0.250000   0.150000   0.0055556  +
             +    36  -0.250000   0.250000   0.250000   0.0055556  +
             +    37  -0.250000   0.250000   0.450000   0.0055556  +
             +    38  -0.250000   0.416667  -0.450000   0.0055556  +
             +    39  -0.250000   0.416667  -0.350000   0.0055556  +
             +    40  -0.250000   0.416667  -0.250000   0.0055556  +
             +    41  -0.250000   0.416667  -0.150000   0.0055556  +
             +    42  -0.250000   0.416667  -0.050000   0.0055556  +
             +    43  -0.250000   0.416667   0.050000   0.0055556  +
             +    44  -0.250000   0.416667   0.150000   0.0055556  +
             +    45  -0.250000   0.416667   0.250000   0.0055556  +
             +    46  -0.250000   0.416667   0.450000   0.0055556  +
             +    47  -0.083333  -0.416667  -0.450000   0.0055556  +
             +    48  -0.083333  -0.416667   0.250000   0.0055556  +
             +    49  -0.083333  -0.416667   0.350000   0.0055556  +
             +    50  -0.083333  -0.416667   0.450000   0.0055556  +
             +    51  -0.083333  -0.250000  -0.450000   0.0055556  +
             +    52  -0.083333  -0.250000  -0.250000   0.0055556  +
             +    53  -0.083333  -0.250000  -0.150000   0.0055556  +
             +    54  -0.083333  -0.250000  -0.050000   0.0055556  +
             +    55  -0.083333  -0.250000   0.050000   0.0055556  +
             +    56  -0.083333  -0.250000   0.150000   0.0055556  +
             +    57  -0.083333  -0.250000   0.250000   0.0055556  +
             +    58  -0.083333  -0.250000   0.350000   0.0055556  +
             +    59  -0.083333  -0.250000   0.450000   0.0055556  +
             +    60  -0.083333  -0.083333  -0.450000   0.0055556  +
             +    61  -0.083333  -0.083333  -0.350000   0.0055556  +
             +    62  -0.083333  -0.083333  -0.250000   0.0055556  +
             +    63  -0.083333  -0.083333  -0.150000   0.0055556  +
             +    64  -0.083333  -0.083333  -0.050000   0.0055556  +
             +    65  -0.083333  -0.083333   0.050000   0.0055556  +
             +    66  -0.083333  -0.083333   0.150000   0.0055556  +
             +    67  -0.083333  -0.083333   0.250000   0.0055556  +
             +    68  -0.083333  -0.083333   0.350000   0.0055556  +
             +    69  -0.083333   0.083333  -0.450000   0.0055556  +
             +    70  -0.083333   0.083333  -0.350000   0.0055556  +
             +    71  -0.083333   0.083333  -0.250000   0.0055556  +
             +    72  -0.083333   0.083333  -0.150000   0.0055556  +
             +    73  -0.083333   0.083333  -0.050000   0.0055556  +
             +    74  -0.083333   0.083333   0.050000   0.0055556  +
             +    75  -0.083333   0.083333   0.150000   0.0055556  +
             +    76  -0.083333   0.083333   0.250000   0.0055556  +
             +    77  -0.083333   0.083333   0.450000   0.0055556  +
             +    78  -0.083333   0.250000  -0.450000   0.0055556  +
             +    79  -0.083333   0.250000  -0.350000   0.0055556  +
             +    80  -0.083333   0.250000  -0.250000   0.0055556  +
             +    81  -0.083333   0.250000  -0.150000   0.0055556  +
             +    82  -0.083333   0.250000  -0.050000   0.0055556  +
             +    83  -0.083333   0.250000   0.050000   0.0055556  +
             +    84  -0.083333   0.250000   0.150000   0.0055556  +
             +    85  -0.083333   0.250000   0.350000   0.0055556  +
             +    86  -0.083333   0.416667  -0.450000   0.0055556  +
             +    87  -0.083333   0.416667  -0.350000   0.0055556  +
             +    88  -0.083333   0.416667  -0.250000   0.0055556  +
             +    89  -0.083333   0.416667  -0.150000   0.0055556  +
             +    90  -0.083333   0.416667  -0.050000   0.0055556  +
             +    91  -0.083333   0.416667   0.050000   0.0055556  +
             +    92  -0.083333   0.416667   0.150000   0.0055556  +
             +    93  -0.083333   0.416667   0.250000   0.0055556  +
             +    94   0.083333  -0.416667  -0.450000   0.0055556  +
             +    95   0.083333  -0.416667  -0.350000   0.0055556  +
             +    96   0.083333  -0.250000  -0.450000   0.0055556  +
             +    97   0.083333  -0.250000  -0.250000   0.0055556  +
             +    98   0.083333  -0.083333  -0.350000   0.0055556  +
             +    99   0.083333   0.083333  -0.450000   0.0055556  +
             +   100   0.083333   0.250000   0.350000   0.0055556  +
             +   101   0.083333   0.416667  -0.150000   0.0055556  +
             +   102   0.083333   0.416667  -0.050000   0.0055556  +
             +   103   0.083333   0.416667   0.050000   0.0055556  +
             +   104   0.083333   0.416667   0.150000   0.0055556  +
             +   105   0.083333   0.416667   0.250000   0.0055556  +
             +   106   0.083333   0.416667   0.350000   0.0055556  +
             +   107   0.250000  -0.416667  -0.350000   0.0055556  +
             +   108   0.250000  -0.250000  -0.350000   0.0055556  +
             +   109   0.250000  -0.250000   0.050000   0.0055556  +
             +   110   0.250000  -0.250000   0.150000   0.0055556  +
             +   111   0.250000  -0.250000   0.250000   0.0055556  +
             +   112   0.250000  -0.250000   0.350000   0.0055556  +
             +   113   0.250000  -0.250000   0.450000   0.0055556  +
             +   114   0.250000  -0.083333  -0.450000   0.0055556  +
             +   115   0.250000  -0.083333  -0.250000   0.0055556  +
             +   116   0.250000  -0.083333  -0.150000   0.0055556  +
             +   117   0.250000  -0.083333  -0.050000   0.0055556  +
             +   118   0.250000  -0.083333   0.050000   0.0055556  +
             +   119   0.250000  -0.083333   0.150000   0.0055556  +
             +   120   0.250000  -0.083333   0.250000   0.0055556  +
             +   121   0.250000  -0.083333   0.350000   0.0055556  +
             +   122   0.250000  -0.083333   0.450000   0.0055556  +
             +   123   0.250000   0.083333  -0.250000   0.0055556  +
             +   124   0.250000   0.083333  -0.150000   0.0055556  +
             +   125   0.250000   0.083333  -0.050000   0.0055556  +
             +   126   0.250000   0.083333   0.050000   0.0055556  +
             +   127   0.250000   0.083333   0.150000   0.0055556  +
             +   128   0.250000   0.083333   0.250000   0.0055556  +
             +   129   0.250000   0.083333   0.350000   0.0055556  +
[...]
             +   126   0.250000   0.416667   0.222222   0.0061728  +
             +   127   0.250000   0.416667   0.333333   0.0061728  +
             +   128   0.416667  -0.416667  -0.444444   0.0061728  +
             +   129   0.416667  -0.416667  -0.222222   0.0061728  +
             +   130   0.416667  -0.416667  -0.111111   0.0061728  +
             +   131   0.416667  -0.416667   0.000000   0.0061728  +
             +   132   0.416667  -0.416667   0.111111   0.0061728  +
             +   133   0.416667  -0.416667   0.222222   0.0061728  +
             +   134   0.416667  -0.416667   0.333333   0.0061728  +
             +   135   0.416667  -0.250000  -0.111111   0.0061728  +
             +   136   0.416667  -0.250000   0.000000   0.0061728  +
             +   137   0.416667  -0.250000   0.111111   0.0061728  +
             +   138   0.416667  -0.250000   0.222222   0.0061728  +
             +   139   0.416667  -0.083333  -0.333333   0.0061728  +
             +   140   0.416667  -0.083333   0.111111   0.0061728  +
             +   141   0.416667  -0.083333   0.222222   0.0061728  +
             +   142   0.416667  -0.083333   0.444444   0.0061728  +
             +   143   0.416667   0.083333  -0.333333   0.0061728  +
             +   144   0.416667   0.083333  -0.111111   0.0061728  +
             +   145   0.416667   0.083333   0.000000   0.0061728  +
             +   146   0.416667   0.083333   0.111111   0.0061728  +
             +   147   0.416667   0.083333   0.222222   0.0061728  +
             +   148   0.416667   0.083333   0.333333   0.0061728  +
             +   149   0.416667   0.083333   0.444444   0.0061728  +
             +   150   0.416667   0.250000  -0.444444   0.0061728  +
             +   151   0.416667   0.250000  -0.111111   0.0061728  +
             +   152   0.416667   0.250000   0.000000   0.0061728  +
             +   153   0.416667   0.250000   0.111111   0.0061728  +
             +   154   0.416667   0.250000   0.333333   0.0061728  +
             +   155   0.416667   0.250000   0.444444   0.0061728  +
             +   156   0.416667   0.416667  -0.444444   0.0061728  +
             +   157   0.416667   0.416667  -0.333333   0.0061728  +
             +   158   0.416667   0.416667  -0.222222   0.0061728  +
             +   159   0.416667   0.416667  -0.111111   0.0061728  +
             +   160   0.416667   0.416667   0.222222   0.0061728  +
             +   161   0.416667   0.416667   0.333333   0.0061728  +
             +   162   0.416667   0.416667   0.444444   0.0061728  +
             +++++++++++++++++++++++++++++++++++++++++++++++++++++++
 
                           -------------------------------
                               Symmetry and Constraints
                           -------------------------------
 
         There are no symmetry operations specified or generated for this cell
                      Number of ionic constraints     =           3
                      Maximum deviation from symmetry =  0.00000         ANG
               Point group of crystal =     1: C1, 1, 1
 
                          Centre of mass is constrained
             Set iprint > 1 for details of linear ionic constraints
 
                         Number of cell constraints= 0
                         Cell constraints are:  1 2 3 4 5 6
 
                         External pressure/stress (GPa)
                        100.00000   0.00000   0.00000
                                  100.00000   0.00000
                                            100.00000
  
+---------------- MEMORY AND SCRATCH DISK ESTIMATES PER NODE -----------------+
|                                                     Memory          Disk    |
| Model and support data                               38.5 MB         0.0 MB |
| Electronic energy minimisation requirements          26.3 MB         0.0 MB |
|                                               ----------------------------- |
| Approx. total storage required per node              64.8 MB         0.0 MB |
|                                                                             |
| Requirements will fluctuate during execution and may exceed these estimates |
+-----------------------------------------------------------------------------+
Calculating finite basis set correction with  3 cut-off energies.
Calculating total energy with cut-off of  290.000eV.
------------------------------------------------------------------------ <-- SCF
SCF loop      Energy           Fermi           Energy gain       Timer   <-- SCF
                               energy          per atom          (sec)   <-- SCF
------------------------------------------------------------------------ <-- SCF
Initial  -4.86543254E+002  0.00000000E+000                         1.11  <-- SCF
      1  -1.86413429E+003  8.15629827E+000   3.44397758E+002       5.01  <-- SCF
      2  -1.94018901E+003  4.69171386E+000   1.90136800E+001       7.74  <-- SCF
      3  -1.94203802E+003  4.69970542E+000   4.62252338E-001      10.55  <-- SCF
      4  -1.94225188E+003  4.41927718E+000   5.34649217E-002      13.56  <-- SCF
      5  -1.94239883E+003  4.84242256E+000   3.67396343E-002      16.67  <-- SCF
      6  -1.94230045E+003  4.56983742E+000  -2.45971037E-002      19.66  <-- SCF
      7  -1.94231875E+003  4.57247174E+000   4.57567028E-003      22.75  <-- SCF
      8  -1.94230428E+003  4.58080056E+000  -3.61804242E-003      25.72  <-- SCF
      9  -1.94230543E+003  4.58074597E+000   2.88631998E-004      28.68  <-- SCF
     10  -1.94406531E+003  3.45656903E+000   4.39969860E-001      30.66  <-- SCF
     11  -1.94458084E+003  3.51313628E+000   1.28881266E-001      33.53  <-- SCF
     12  -1.94502342E+003  2.99007172E+000   1.10645933E-001      36.38  <-- SCF
     13  -1.94494630E+003  3.40511515E+000  -1.92800251E-002      39.38  <-- SCF
     14  -1.94497886E+003  3.31794029E+000   8.14027898E-003      42.36  <-- SCF
     15  -1.94497674E+003  3.31530760E+000  -5.29835911E-004      45.40  <-- SCF
     16  -1.94497779E+003  3.31677199E+000   2.61362170E-004      48.32  <-- SCF
     17  -1.94497783E+003  3.31616475E+000   1.10960103E-005      50.77  <-- SCF
     18  -1.94497790E+003  3.31623825E+000   1.78068799E-005      52.54  <-- SCF
     19  -1.94497790E+003  3.31626478E+000   4.59921403E-007      54.27  <-- SCF
     20  -1.94497790E+003  3.31626195E+000   6.24461571E-008      56.00  <-- SCF
------------------------------------------------------------------------ <-- SCF
 
 2*Integrated Spin Density   =    0.490957E-04
 2*Integrated |Spin Density| =    0.762361E-04
 
Final energy, E             =  -1944.940760180     eV
Final free energy (E-TS)    =  -1944.977904587     eV
(energies not corrected for finite basis set)
 
NB est. 0K energy (E-0.5TS)      =  -1944.959332384     eV
 
Calculating total energy with cut-off of  295.000eV.
------------------------------------------------------------------------ <-- SCF
SCF loop      Energy           Fermi           Energy gain       Timer   <-- SCF
                               energy          per atom          (sec)   <-- SCF
------------------------------------------------------------------------ <-- SCF
Initial  -1.94494076E+003  0.00000000E+000                        56.38  <-- SCF
      1  -1.94503992E+003  3.31265180E+000   2.47894818E-002      59.47  <-- SCF
      2  -1.94504007E+003  3.31264597E+000   3.87504065E-005      63.40  <-- SCF
      3  -1.94504027E+003  3.33408956E+000   5.02640680E-005      65.97  <-- SCF
      4  -1.94504005E+003  3.31712275E+000  -5.56584108E-005      68.19  <-- SCF
      5  -1.94504009E+003  3.31704103E+000   1.08354930E-005      70.14  <-- SCF
      6  -1.94504005E+003  3.31764018E+000  -1.17046769E-005      72.12  <-- SCF
      7  -1.94504005E+003  3.31763077E+000   3.06064128E-007      74.09  <-- SCF
      8  -1.94504005E+003  3.31763120E+000   2.94359582E-008      76.06  <-- SCF
------------------------------------------------------------------------ <-- SCF
 
 2*Integrated Spin Density   =    0.716591E-06
 2*Integrated |Spin Density| =    0.457801E-05
 
Final energy, E             =  -1945.002962753     eV
Final free energy (E-TS)    =  -1945.040047530     eV
(energies not corrected for finite basis set)
 
NB est. 0K energy (E-0.5TS)      =  -1945.021505142     eV
 
Calculating total energy with cut-off of  300.000eV.
------------------------------------------------------------------------ <-- SCF
SCF loop      Energy           Fermi           Energy gain       Timer   <-- SCF
                               energy          per atom          (sec)   <-- SCF
------------------------------------------------------------------------ <-- SCF
Initial  -1.94500296E+003  0.00000000E+000                        76.47  <-- SCF
      1  -1.94509026E+003  3.31430438E+000   2.18255387E-002      79.96  <-- SCF
      2  -1.94509037E+003  3.31430039E+000   2.83373264E-005      84.33  <-- SCF
      3  -1.94509052E+003  3.33239412E+000   3.69763826E-005      87.05  <-- SCF
      4  -1.94509037E+003  3.31810407E+000  -3.94076378E-005      89.33  <-- SCF
      5  -1.94509039E+003  3.31771965E+000   6.15550766E-006      91.57  <-- SCF
      6  -1.94509036E+003  3.31848205E+000  -7.43118879E-006      93.80  <-- SCF
------------------------------------------------------------------------ <-- SCF
 
 2*Integrated Spin Density   =   -0.405876E-07
 2*Integrated |Spin Density| =    0.878436E-06
 
Final energy, E             =  -1945.053261095     eV
Final free energy (E-TS)    =  -1945.090360164     eV
(energies not corrected for finite basis set)
 
NB est. 0K energy (E-0.5TS)      =  -1945.071810629     eV
 
 For future reference: finite basis dEtot/dlog(Ecut) =      -3.321952eV
 Total energy corrected for finite basis set =   -1945.090487 eV
 
+---------------- MEMORY AND SCRATCH DISK ESTIMATES PER NODE -----------------+
|                                                     Memory          Disk    |
| Model and support data                               40.5 MB         0.0 MB |
| Electronic energy minimisation requirements          26.3 MB         0.0 MB |
| Geometry minimisation requirements                   38.6 MB         0.0 MB |
|                                               ----------------------------- |
| Approx. total storage required per node             105.4 MB         0.0 MB |
|                                                                             |
| Requirements will fluctuate during execution and may exceed these estimates |
+-----------------------------------------------------------------------------+
 
 
 *********************************** Forces ***********************************
 *                                                                            *
 *                        Cartesian components (eV/A)                         *
 * -------------------------------------------------------------------------- *
 *                   x                    y                    z              *
 *                                                                            *
 * Si        1     -0.00644              0.00057             -0.00458         *
 * Si        2      0.00756              0.00320              0.01050         *
 * Fe        1      0.00840             -0.00913             -0.00519         *
 * Fe        2     -0.00952              0.00536             -0.00073         *
 *                                                                            *
 ******************************************************************************
 
 ***************** Stress Tensor *****************
 *                                               *
 *          Cartesian components (GPa)           *
 * --------------------------------------------- *
 *             x             y             z     *
 *                                               *
 *  x   -100.237755     -0.013117     -0.005813  *
 *  y     -0.013117   -100.225514     -0.022372  *
 *  z     -0.005813     -0.022372   -100.265390  *
 *                                               *
 *  Pressure:  100.2429                          *
 *                                               *
 *************************************************
 BFGS: finished iteration     0 with enthalpy= -1.92427530E+003 eV
  
 +-----------+-----------------+-----------------+------------+-----+ <-- BFGS
 | Parameter |      value      |    tolerance    |    units   | OK? | <-- BFGS
 +-----------+-----------------+-----------------+------------+-----+ <-- BFGS
 |  dE/ion   |   0.000000E+000 |   2.000000E-005 |         eV | No  | <-- BFGS
 |  |F|max   |   1.344812E-002 |   5.000000E-002 |       eV/A | Yes | <-- BFGS
 |  |dR|max  |   0.000000E+000 |   1.000000E-003 |          A | No  | <-- BFGS
 |   Smax    |   2.653899E-001 |   1.000000E-001 |        GPa | No  | <-- BFGS
 +-----------+-----------------+-----------------+------------+-----+ <-- BFGS
  

================================================================================
 Starting BFGS iteration          1 ...
================================================================================
  
 +------------+-------------+-------------+-----------------+ <-- min BFGS
 |    Step    |   lambda    |   F.delta   |    enthalpy     | <-- min BFGS
 +------------+-------------+-------------+-----------------+ <-- min BFGS
 |  previous  |    0.000000 |    0.000001 |    -1924.275301 | <-- min BFGS
 +------------+-------------+-------------+-----------------+ <-- min BFGS
  

--------------------------------------------------------------------------------
 BFGS: starting iteration         1 with trial guess (lambda=  1.000000)
--------------------------------------------------------------------------------
 
+---------------- MEMORY AND SCRATCH DISK ESTIMATES PER NODE -----------------+
|                                                     Memory          Disk    |
| Model and support data                               40.5 MB         0.0 MB |
| Electronic energy minimisation requirements          26.4 MB         0.0 MB |
| Geometry minimisation requirements                   38.7 MB         0.0 MB |
|                                               ----------------------------- |
| Approx. total storage required per node             105.5 MB         0.0 MB |
|                                                                             |
| Requirements will fluctuate during execution and may exceed these estimates |
+-----------------------------------------------------------------------------+
 
 
                           -------------------------------
                                      Unit Cell
                           -------------------------------
        Real Lattice(A)              Reciprocal Lattice(1/A)
   3.6674012   0.0000321   0.0000142        1.7132476   0.5180966   0.1713730
  -1.1811548   3.9058378   0.0000537       -0.0000161   1.6086530   0.5328593
   0.0003320  -0.7715709   2.3293013       -0.0000105  -0.0000402   2.6974416
 
                       Lattice parameters(A)       Cell Angles
                    a =    3.667401          alpha =  107.518207
                    b =    4.080526          beta  =   89.992194
                    c =    2.453766          gamma =  106.825212
 
                Current cell volume =   33.365804 A**3
 
                           -------------------------------
                                     Cell Contents
                           -------------------------------
 
            xxxxxxxxxxxxxxxxxxxxxxxxxxxxxxxxxxxxxxxxxxxxxxxxxxxxxxxxxxxx
            x  Element    Atom        Fractional coordinates of atoms  x
            x            Number           u          v          w      x
            x----------------------------------------------------------x
            x  Si           1         0.200282   0.660456   0.802686   x
            x  Si           2         0.829103   0.155178   0.051258   x
            x  Fe           1         0.324099   0.148944   0.547381   x
            x  Fe           2         0.705347   0.666409   0.305920   x
            xxxxxxxxxxxxxxxxxxxxxxxxxxxxxxxxxxxxxxxxxxxxxxxxxxxxxxxxxxxx
 
 
------------------------------------------------------------------------ <-- SCF
SCF loop      Energy           Fermi           Energy gain       Timer   <-- SCF
                               energy          per atom          (sec)   <-- SCF
------------------------------------------------------------------------ <-- SCF
Initial  -1.94506212E+003  0.00000000E+000                        95.84  <-- SCF
      1  -1.94510086E+003  3.28699815E+000   9.68391063E-003      99.46  <-- SCF
      2  -1.94510086E+003  3.28699815E+000   4.18127865E-007     101.84  <-- SCF
      3  -1.94510597E+003  3.39802653E+000   1.27771644E-003     105.55  <-- SCF
      4  -1.94510020E+003  3.31657807E+000  -1.44412648E-003     109.17  <-- SCF
      5  -1.94510015E+003  3.31614471E+000  -1.15905039E-005     111.58  <-- SCF
      6  -1.94510015E+003  3.31589336E+000   1.03095836E-006     113.80  <-- SCF
      7  -1.94510015E+003  3.31589012E+000   1.36905251E-008     116.04  <-- SCF
------------------------------------------------------------------------ <-- SCF
 
 2*Integrated Spin Density   =    0.118181E-08
 2*Integrated |Spin Density| =    0.209415E-07
 
Final energy, E             =  -1945.063016441     eV
Final free energy (E-TS)    =  -1945.100152946     eV
(energies not corrected for finite basis set)
 
NB est. 0K energy (E-0.5TS)      =  -1945.081584693     eV
 
 
 *********************************** Forces ***********************************
 *                                                                            *
 *                        Cartesian components (eV/A)                         *
 * -------------------------------------------------------------------------- *
 *                   x                    y                    z              *
 *                                                                            *
 * Si        1     -0.00605              0.00071             -0.00419         *
 * Si        2      0.00708              0.00283              0.00987         *
 * Fe        1      0.00732             -0.00915             -0.00499         *
 * Fe        2     -0.00835              0.00561             -0.00069         *
 *                                                                            *
 ******************************************************************************
 
 ***************** Stress Tensor *****************
 *                                               *
 *          Cartesian components (GPa)           *
 * --------------------------------------------- *
 *             x             y             z     *
 *                                               *
 *  x    -99.926187     -0.023634     -0.009955  *
 *  y     -0.023634    -99.921833     -0.013699  *
 *  z     -0.009955     -0.013699    -99.964462  *
 *                                               *
 *  Pressure:   99.9375                          *
 *                                               *
 *************************************************
  
 +------------+-------------+-------------+-----------------+ <-- min BFGS
 |    Step    |   lambda    |   F.delta   |    enthalpy     | <-- min BFGS
 +------------+-------------+-------------+-----------------+ <-- min BFGS
 |  previous  |    0.000000 |    0.000001 |    -1924.275301 | <-- min BFGS
 | trial step |    1.000000 |    0.000000 |    -1924.275086 | <-- min BFGS
 +------------+-------------+-------------+-----------------+ <-- min BFGS
  
 BFGS: finished iteration     1 with enthalpy= -1.92427509E+003 eV
  
 +-----------+-----------------+-----------------+------------+-----+ <-- BFGS
 | Parameter |      value      |    tolerance    |    units   | OK? | <-- BFGS
 +-----------+-----------------+-----------------+------------+-----+ <-- BFGS
 |  dE/ion   |   5.386223E-005 |   2.000000E-005 |         eV | No  | <-- BFGS
